/*--------------------------------*- C++ -*----------------------------------*\
  =========                 |
  \\      /  F ield         | OpenFOAM: The Open Source CFD Toolbox
   \\    /   O peration     | Website:  https://openfoam.org
    \\  /    A nd           | Version:  9
     \\/     M anipulation  |
\*---------------------------------------------------------------------------*/
FoamFile
{
    format      ascii;
    class       volScalarField;
    location    "90000";
    object      ddt0(T);
}
// * * * * * * * * * * * * * * * * * * * * * * * * * * * * * * * * * * * * * //

dimensions      [0 0 -1 1 0 0 0];

internalField   nonuniform List<scalar> 
100
(
0.00041185
0.000412087
0.00041256
0.00041327
0.000414216
0.000415399
0.000416818
0.000418473
0.000420364
0.000422492
0.000424855
0.000427454
0.000430288
0.000433357
0.000436662
0.000440201
0.000443974
0.000447982
0.000452223
0.000456698
0.000461405
0.000466345
0.000471517
0.00047692
0.000482555
0.000488419
0.000494514
0.000500837
0.000507389
0.000514168
0.000521174
0.000528405
0.000535862
0.000543543
0.000551446
0.000559572
0.000567918
0.000576483
0.000585267
0.000594267
0.000603483
0.000612912
0.000622554
0.000632406
0.000642466
0.000652734
0.000663206
0.000673881
0.000684757
0.000695831
0.0007071
0.000718564
0.000730218
0.00074206
0.000754087
0.000766297
0.000778685
0.00079125
0.000803987
0.000816892
0.000829963
0.000843195
0.000856585
0.000870128
0.000883819
0.000897655
0.00091163
0.00092574
0.00093998
0.000954344
0.000968827
0.000983424
0.000998128
0.00101293
0.00102783
0.00104282
0.00105789
0.00107304
0.00108826
0.00110353
0.00111886
0.00113423
0.00114964
0.00116508
0.00118053
0.001196
0.00121147
0.00122693
0.00124237
0.00125779
0.00127316
0.00128849
0.00130375
0.00131895
0.00133406
0.00134908
0.00136399
0.00137878
0.00139343
0.00140794
)
;

boundaryField
{
    left
    {
        type            calculated;
        value           uniform 0.00041185;
    }
    right
    {
        type            calculated;
        value           uniform 0.00141512;
    }
    frontAndBack
    {
        type            empty;
    }
    top_bottom
    {
        type            calculated;
        value           nonuniform List<scalar> 
200
(
0.00041185
0.000412087
0.00041256
0.00041327
0.000414216
0.000415399
0.000416818
0.000418473
0.000420364
0.000422492
0.000424855
0.000427454
0.000430288
0.000433357
0.000436662
0.000440201
0.000443974
0.000447982
0.000452223
0.000456698
0.000461405
0.000466345
0.000471517
0.00047692
0.000482555
0.000488419
0.000494514
0.000500837
0.000507389
0.000514168
0.000521174
0.000528405
0.000535862
0.000543543
0.000551446
0.000559572
0.000567918
0.000576483
0.000585267
0.000594267
0.000603483
0.000612912
0.000622554
0.000632406
0.000642466
0.000652734
0.000663206
0.000673881
0.000684757
0.000695831
0.0007071
0.000718564
0.000730218
0.00074206
0.000754087
0.000766297
0.000778685
0.00079125
0.000803987
0.000816892
0.000829963
0.000843195
0.000856585
0.000870128
0.000883819
0.000897655
0.00091163
0.00092574
0.00093998
0.000954344
0.000968827
0.000983424
0.000998128
0.00101293
0.00102783
0.00104282
0.00105789
0.00107304
0.00108826
0.00110353
0.00111886
0.00113423
0.00114964
0.00116508
0.00118053
0.001196
0.00121147
0.00122693
0.00124237
0.00125779
0.00127316
0.00128849
0.00130375
0.00131895
0.00133406
0.00134908
0.00136399
0.00137878
0.00139343
0.00140794
0.00041185
0.000412087
0.00041256
0.00041327
0.000414216
0.000415399
0.000416818
0.000418473
0.000420364
0.000422492
0.000424855
0.000427454
0.000430288
0.000433357
0.000436662
0.000440201
0.000443974
0.000447982
0.000452223
0.000456698
0.000461405
0.000466345
0.000471517
0.00047692
0.000482555
0.000488419
0.000494514
0.000500837
0.000507389
0.000514168
0.000521174
0.000528405
0.000535862
0.000543543
0.000551446
0.000559572
0.000567918
0.000576483
0.000585267
0.000594267
0.000603483
0.000612912
0.000622554
0.000632406
0.000642466
0.000652734
0.000663206
0.000673881
0.000684757
0.000695831
0.0007071
0.000718564
0.000730218
0.00074206
0.000754087
0.000766297
0.000778685
0.00079125
0.000803987
0.000816892
0.000829963
0.000843195
0.000856585
0.000870128
0.000883819
0.000897655
0.00091163
0.00092574
0.00093998
0.000954344
0.000968827
0.000983424
0.000998128
0.00101293
0.00102783
0.00104282
0.00105789
0.00107304
0.00108826
0.00110353
0.00111886
0.00113423
0.00114964
0.00116508
0.00118053
0.001196
0.00121147
0.00122693
0.00124237
0.00125779
0.00127316
0.00128849
0.00130375
0.00131895
0.00133406
0.00134908
0.00136399
0.00137878
0.00139343
0.00140794
)
;
    }
}


// ************************************************************************* //
