/*--------------------------------*- C++ -*----------------------------------*\
  =========                 |
  \\      /  F ield         | OpenFOAM: The Open Source CFD Toolbox
   \\    /   O peration     | Website:  https://openfoam.org
    \\  /    A nd           | Version:  9
     \\/     M anipulation  |
\*---------------------------------------------------------------------------*/
FoamFile
{
    format      ascii;
    class       volScalarField;
    location    "90000";
    object      gradTx;
}
// * * * * * * * * * * * * * * * * * * * * * * * * * * * * * * * * * * * * * //

dimensions      [0 -1 0 1 0 0 0];

internalField   nonuniform List<scalar> 
100
(
-499.269
-497.806
-496.341
-494.875
-493.406
-491.933
-490.456
-488.973
-487.485
-485.989
-484.486
-482.974
-481.453
-479.922
-478.38
-476.826
-475.259
-473.68
-472.086
-470.477
-468.852
-467.211
-465.552
-463.876
-462.18
-460.465
-458.729
-456.972
-455.193
-453.391
-451.566
-449.716
-447.841
-445.94
-444.012
-442.057
-440.074
-438.062
-436.02
-433.948
-431.845
-429.71
-427.542
-425.341
-423.106
-420.837
-418.532
-416.191
-413.813
-411.398
-408.945
-406.453
-403.921
-401.35
-398.738
-396.085
-393.39
-390.653
-387.873
-385.049
-382.181
-379.268
-376.311
-373.307
-370.258
-367.162
-364.019
-360.828
-357.589
-354.303
-350.967
-347.582
-344.148
-340.664
-337.13
-333.546
-329.912
-326.226
-322.489
-318.702
-314.863
-310.972
-307.03
-303.036
-298.991
-294.894
-290.745
-286.545
-282.293
-277.99
-273.636
-269.231
-264.775
-260.269
-255.713
-251.107
-246.451
-241.747
-236.995
-232.194
)
;

boundaryField
{
    left
    {
        type            calculated;
        value           uniform -500;
    }
    right
    {
        type            calculated;
        value           uniform -229.782;
    }
    frontAndBack
    {
        type            empty;
    }
    top_bottom
    {
        type            calculated;
        value           nonuniform List<scalar> 
200
(
-499.269
-497.806
-496.341
-494.875
-493.406
-491.933
-490.456
-488.973
-487.485
-485.989
-484.486
-482.974
-481.453
-479.922
-478.38
-476.826
-475.259
-473.68
-472.086
-470.477
-468.852
-467.211
-465.552
-463.876
-462.18
-460.465
-458.729
-456.972
-455.193
-453.391
-451.566
-449.716
-447.841
-445.94
-444.012
-442.057
-440.074
-438.062
-436.02
-433.948
-431.845
-429.71
-427.542
-425.341
-423.106
-420.837
-418.532
-416.191
-413.813
-411.398
-408.945
-406.453
-403.921
-401.35
-398.738
-396.085
-393.39
-390.653
-387.873
-385.049
-382.181
-379.268
-376.311
-373.307
-370.258
-367.162
-364.019
-360.828
-357.589
-354.303
-350.967
-347.582
-344.148
-340.664
-337.13
-333.546
-329.912
-326.226
-322.489
-318.702
-314.863
-310.972
-307.03
-303.036
-298.991
-294.894
-290.745
-286.545
-282.293
-277.99
-273.636
-269.231
-264.775
-260.269
-255.713
-251.107
-246.451
-241.747
-236.995
-232.194
-499.269
-497.806
-496.341
-494.875
-493.406
-491.933
-490.456
-488.973
-487.485
-485.989
-484.486
-482.974
-481.453
-479.922
-478.38
-476.826
-475.259
-473.68
-472.086
-470.477
-468.852
-467.211
-465.552
-463.876
-462.18
-460.465
-458.729
-456.972
-455.193
-453.391
-451.566
-449.716
-447.841
-445.94
-444.012
-442.057
-440.074
-438.062
-436.02
-433.948
-431.845
-429.71
-427.542
-425.341
-423.106
-420.837
-418.532
-416.191
-413.813
-411.398
-408.945
-406.453
-403.921
-401.35
-398.738
-396.085
-393.39
-390.653
-387.873
-385.049
-382.181
-379.268
-376.311
-373.307
-370.258
-367.162
-364.019
-360.828
-357.589
-354.303
-350.967
-347.582
-344.148
-340.664
-337.13
-333.546
-329.912
-326.226
-322.489
-318.702
-314.863
-310.972
-307.03
-303.036
-298.991
-294.894
-290.745
-286.545
-282.293
-277.99
-273.636
-269.231
-264.775
-260.269
-255.713
-251.107
-246.451
-241.747
-236.995
-232.194
)
;
    }
}


// ************************************************************************* //
