/*--------------------------------*- C++ -*----------------------------------*\
  =========                 |
  \\      /  F ield         | OpenFOAM: The Open Source CFD Toolbox
   \\    /   O peration     | Website:  https://openfoam.org
    \\  /    A nd           | Version:  9
     \\/     M anipulation  |
\*---------------------------------------------------------------------------*/
FoamFile
{
    format      ascii;
    class       volScalarField;
    location    "90000";
    object      T;
}
// * * * * * * * * * * * * * * * * * * * * * * * * * * * * * * * * * * * * * //

dimensions      [0 0 0 1 0 0 0];

internalField   nonuniform List<scalar> 
100
(
376.617
375.62
374.626
373.634
372.646
371.661
370.678
369.699
368.722
367.749
366.778
365.811
364.847
363.885
362.927
361.972
361.02
360.071
359.125
358.182
357.243
356.307
355.374
354.445
353.519
352.596
351.677
350.761
349.849
348.94
348.035
347.134
346.236
345.343
344.453
343.567
342.684
341.806
340.932
340.062
339.196
338.335
337.478
336.625
335.776
334.932
334.093
333.258
332.428
331.603
330.782
329.967
329.157
328.351
327.551
326.756
325.967
325.183
324.404
323.631
322.864
322.103
321.347
320.597
319.854
319.116
318.385
317.66
316.942
316.23
315.525
314.826
314.134
313.449
312.772
312.101
311.437
310.781
310.133
309.491
308.858
308.232
307.614
307.004
306.402
305.808
305.222
304.645
304.076
303.516
302.964
302.421
301.887
301.362
300.846
300.339
299.842
299.353
298.875
298.405
)
;

boundaryField
{
    left
    {
        type            fixedGradient;
        gradient        uniform 500;
    }
    right
    {
        type            uniformFixedValue;
        uniformValue    
        {
            type            sine;
            amplitude       
            {
                type            constant;
                value           20;
            }
            frequency       1.1574e-05;
            start           0;
            level           
            {
                type            constant;
                value           293;
            }
        }
        value           uniform 298.176;
    }
    frontAndBack
    {
        type            empty;
    }
    top_bottom
    {
        type            zeroGradient;
    }
}


// ************************************************************************* //
