/*--------------------------------*- C++ -*----------------------------------*\
  =========                 |
  \\      /  F ield         | OpenFOAM: The Open Source CFD Toolbox
   \\    /   O peration     | Website:  https://openfoam.org
    \\  /    A nd           | Version:  9
     \\/     M anipulation  |
\*---------------------------------------------------------------------------*/
FoamFile
{
    format      ascii;
    class       volScalarField;
    location    "90000";
    object      T_0;
}
// * * * * * * * * * * * * * * * * * * * * * * * * * * * * * * * * * * * * * //

dimensions      [0 0 0 1 0 0 0];

internalField   nonuniform List<scalar> 
100
(
376.466
375.469
374.474
373.483
372.494
371.509
370.526
369.546
368.568
367.594
366.623
365.654
364.689
363.727
362.767
361.811
360.857
359.907
358.959
358.015
357.074
356.136
355.202
354.27
353.342
352.418
351.496
350.578
349.664
348.753
347.845
346.941
346.041
345.144
344.252
343.363
342.478
341.596
340.719
339.846
338.977
338.112
337.251
336.395
335.543
334.695
333.852
333.013
332.179
331.35
330.526
329.706
328.892
328.082
327.278
326.479
325.685
324.896
324.113
323.335
322.564
321.797
321.037
320.283
319.534
318.792
318.056
317.326
316.602
315.885
315.175
314.471
313.774
313.084
312.401
311.725
311.056
310.394
309.74
309.094
308.455
307.823
307.2
306.584
305.977
305.377
304.786
304.203
303.629
303.063
302.506
301.958
301.419
300.888
300.367
299.855
299.352
298.859
298.375
297.9
)
;

boundaryField
{
    left
    {
        type            fixedGradient;
        gradient        uniform 500;
    }
    right
    {
        type            uniformFixedValue;
        uniformValue    
        {
            type            sine;
            amplitude       
            {
                type            constant;
                value           20;
            }
            frequency       1.1574e-05;
            start           0;
            level           
            {
                type            constant;
                value           293;
            }
        }
        value           uniform 297.668;
    }
    frontAndBack
    {
        type            empty;
    }
    top_bottom
    {
        type            zeroGradient;
    }
}


// ************************************************************************* //
