/*--------------------------------*- C++ -*----------------------------------*\
  =========                 |
  \\      /  F ield         | OpenFOAM: The Open Source CFD Toolbox
   \\    /   O peration     | Website:  https://openfoam.org
    \\  /    A nd           | Version:  9
     \\/     M anipulation  |
\*---------------------------------------------------------------------------*/
FoamFile
{
    format      ascii;
    class       volScalarField;
    location    "172800";
    object      ddt0(T);
}
// * * * * * * * * * * * * * * * * * * * * * * * * * * * * * * * * * * * * * //

dimensions      [0 0 -1 1 0 0 0];

internalField   nonuniform List<scalar> 
100
(
-1.08843e-05
-1.05761e-05
-9.95978e-06
-9.03524e-06
-7.80248e-06
-6.26147e-06
-4.41218e-06
-2.25456e-06
2.11449e-07
2.98589e-06
6.06884e-06
9.46035e-06
1.31605e-05
1.71694e-05
2.1487e-05
2.61135e-05
3.10489e-05
3.62934e-05
4.18469e-05
4.77095e-05
5.38814e-05
6.03625e-05
6.71529e-05
7.42527e-05
8.16618e-05
8.93803e-05
9.74082e-05
0.000105745
0.000114392
0.000123348
0.000132612
0.000142186
0.000152069
0.000162261
0.000172761
0.000183569
0.000194685
0.000206109
0.00021784
0.000229878
0.000242222
0.000254872
0.000267828
0.000281088
0.000294652
0.000308519
0.000322689
0.00033716
0.000351931
0.000367002
0.000382371
0.000398037
0.000413998
0.000430254
0.000446803
0.000463642
0.000480771
0.000498187
0.000515889
0.000533874
0.00055214
0.000570685
0.000589506
0.000608601
0.000627966
0.0006476
0.000667499
0.000687659
0.000708077
0.00072875
0.000749674
0.000770845
0.000792258
0.000813911
0.000835797
0.000857913
0.000880252
0.000902812
0.000925585
0.000948566
0.00097175
0.000995131
0.0010187
0.00104246
0.00106639
0.00109049
0.00111475
0.00113917
0.00116374
0.00118844
0.00121328
0.00123823
0.0012633
0.00128847
0.00131374
0.00133909
0.00136451
0.00139
0.00141554
0.00144111
)
;

boundaryField
{
    left
    {
        type            calculated;
        value           uniform -1.08843e-05;
    }
    right
    {
        type            calculated;
        value           uniform 0.00145392;
    }
    frontAndBack
    {
        type            empty;
    }
    top_bottom
    {
        type            calculated;
        value           nonuniform List<scalar> 
200
(
-1.08843e-05
-1.05761e-05
-9.95978e-06
-9.03524e-06
-7.80248e-06
-6.26147e-06
-4.41218e-06
-2.25456e-06
2.11449e-07
2.98589e-06
6.06884e-06
9.46035e-06
1.31605e-05
1.71694e-05
2.1487e-05
2.61135e-05
3.10489e-05
3.62934e-05
4.18469e-05
4.77095e-05
5.38814e-05
6.03625e-05
6.71529e-05
7.42527e-05
8.16618e-05
8.93803e-05
9.74082e-05
0.000105745
0.000114392
0.000123348
0.000132612
0.000142186
0.000152069
0.000162261
0.000172761
0.000183569
0.000194685
0.000206109
0.00021784
0.000229878
0.000242222
0.000254872
0.000267828
0.000281088
0.000294652
0.000308519
0.000322689
0.00033716
0.000351931
0.000367002
0.000382371
0.000398037
0.000413998
0.000430254
0.000446803
0.000463642
0.000480771
0.000498187
0.000515889
0.000533874
0.00055214
0.000570685
0.000589506
0.000608601
0.000627966
0.0006476
0.000667499
0.000687659
0.000708077
0.00072875
0.000749674
0.000770845
0.000792258
0.000813911
0.000835797
0.000857913
0.000880252
0.000902812
0.000925585
0.000948566
0.00097175
0.000995131
0.0010187
0.00104246
0.00106639
0.00109049
0.00111475
0.00113917
0.00116374
0.00118844
0.00121328
0.00123823
0.0012633
0.00128847
0.00131374
0.00133909
0.00136451
0.00139
0.00141554
0.00144111
-1.08843e-05
-1.05761e-05
-9.95978e-06
-9.03524e-06
-7.80248e-06
-6.26147e-06
-4.41218e-06
-2.25456e-06
2.11449e-07
2.98589e-06
6.06884e-06
9.46035e-06
1.31605e-05
1.71694e-05
2.1487e-05
2.61135e-05
3.10489e-05
3.62934e-05
4.18469e-05
4.77095e-05
5.38814e-05
6.03625e-05
6.71529e-05
7.42527e-05
8.16618e-05
8.93803e-05
9.74082e-05
0.000105745
0.000114392
0.000123348
0.000132612
0.000142186
0.000152069
0.000162261
0.000172761
0.000183569
0.000194685
0.000206109
0.00021784
0.000229878
0.000242222
0.000254872
0.000267828
0.000281088
0.000294652
0.000308519
0.000322689
0.00033716
0.000351931
0.000367002
0.000382371
0.000398037
0.000413998
0.000430254
0.000446803
0.000463642
0.000480771
0.000498187
0.000515889
0.000533874
0.00055214
0.000570685
0.000589506
0.000608601
0.000627966
0.0006476
0.000667499
0.000687659
0.000708077
0.00072875
0.000749674
0.000770845
0.000792258
0.000813911
0.000835797
0.000857913
0.000880252
0.000902812
0.000925585
0.000948566
0.00097175
0.000995131
0.0010187
0.00104246
0.00106639
0.00109049
0.00111475
0.00113917
0.00116374
0.00118844
0.00121328
0.00123823
0.0012633
0.00128847
0.00131374
0.00133909
0.00136451
0.00139
0.00141554
0.00144111
)
;
    }
}


// ************************************************************************* //
