/*--------------------------------*- C++ -*----------------------------------*\
  =========                 |
  \\      /  F ield         | OpenFOAM: The Open Source CFD Toolbox
   \\    /   O peration     | Website:  https://openfoam.org
    \\  /    A nd           | Version:  9
     \\/     M anipulation  |
\*---------------------------------------------------------------------------*/
FoamFile
{
    format      ascii;
    class       volScalarField;
    location    "172800";
    object      gradTx;
}
// * * * * * * * * * * * * * * * * * * * * * * * * * * * * * * * * * * * * * //

dimensions      [0 -1 0 1 0 0 0];

internalField   nonuniform List<scalar> 
100
(
-499.991
-499.973
-499.952
-499.93
-499.903
-499.872
-499.835
-499.791
-499.739
-499.678
-499.607
-499.524
-499.43
-499.322
-499.2
-499.062
-498.908
-498.736
-498.546
-498.336
-498.105
-497.852
-497.577
-497.278
-496.953
-496.603
-496.225
-495.819
-495.384
-494.919
-494.422
-493.893
-493.33
-492.733
-492.1
-491.43
-490.723
-489.977
-489.191
-488.364
-487.495
-486.584
-485.628
-484.627
-483.58
-482.486
-481.344
-480.153
-478.911
-477.618
-476.273
-474.875
-473.422
-471.914
-470.35
-468.729
-467.049
-465.311
-463.512
-461.652
-459.73
-457.744
-455.695
-453.582
-451.402
-449.156
-446.842
-444.459
-442.008
-439.486
-436.893
-434.229
-431.491
-428.681
-425.796
-422.836
-419.8
-416.688
-413.499
-410.232
-406.887
-403.462
-399.958
-396.373
-392.707
-388.96
-385.131
-381.219
-377.225
-373.147
-368.985
-364.739
-360.408
-355.992
-351.492
-346.905
-342.234
-337.476
-332.633
-327.703
)
;

boundaryField
{
    left
    {
        type            calculated;
        value           uniform -500;
    }
    right
    {
        type            calculated;
        value           uniform -325.217;
    }
    frontAndBack
    {
        type            empty;
    }
    top_bottom
    {
        type            calculated;
        value           nonuniform List<scalar> 
200
(
-499.991
-499.973
-499.952
-499.93
-499.903
-499.872
-499.835
-499.791
-499.739
-499.678
-499.607
-499.524
-499.43
-499.322
-499.2
-499.062
-498.908
-498.736
-498.546
-498.336
-498.105
-497.852
-497.577
-497.278
-496.953
-496.603
-496.225
-495.819
-495.384
-494.919
-494.422
-493.893
-493.33
-492.733
-492.1
-491.43
-490.723
-489.977
-489.191
-488.364
-487.495
-486.584
-485.628
-484.627
-483.58
-482.486
-481.344
-480.153
-478.911
-477.618
-476.273
-474.875
-473.422
-471.914
-470.35
-468.729
-467.049
-465.311
-463.512
-461.652
-459.73
-457.744
-455.695
-453.582
-451.402
-449.156
-446.842
-444.459
-442.008
-439.486
-436.893
-434.229
-431.491
-428.681
-425.796
-422.836
-419.8
-416.688
-413.499
-410.232
-406.887
-403.462
-399.958
-396.373
-392.707
-388.96
-385.131
-381.219
-377.225
-373.147
-368.985
-364.739
-360.408
-355.992
-351.492
-346.905
-342.234
-337.476
-332.633
-327.703
-499.991
-499.973
-499.952
-499.93
-499.903
-499.872
-499.835
-499.791
-499.739
-499.678
-499.607
-499.524
-499.43
-499.322
-499.2
-499.062
-498.908
-498.736
-498.546
-498.336
-498.105
-497.852
-497.577
-497.278
-496.953
-496.603
-496.225
-495.819
-495.384
-494.919
-494.422
-493.893
-493.33
-492.733
-492.1
-491.43
-490.723
-489.977
-489.191
-488.364
-487.495
-486.584
-485.628
-484.627
-483.58
-482.486
-481.344
-480.153
-478.911
-477.618
-476.273
-474.875
-473.422
-471.914
-470.35
-468.729
-467.049
-465.311
-463.512
-461.652
-459.73
-457.744
-455.695
-453.582
-451.402
-449.156
-446.842
-444.459
-442.008
-439.486
-436.893
-434.229
-431.491
-428.681
-425.796
-422.836
-419.8
-416.688
-413.499
-410.232
-406.887
-403.462
-399.958
-396.373
-392.707
-388.96
-385.131
-381.219
-377.225
-373.147
-368.985
-364.739
-360.408
-355.992
-351.492
-346.905
-342.234
-337.476
-332.633
-327.703
)
;
    }
}


// ************************************************************************* //
