/*--------------------------------*- C++ -*----------------------------------*\
  =========                 |
  \\      /  F ield         | OpenFOAM: The Open Source CFD Toolbox
   \\    /   O peration     | Website:  https://openfoam.org
    \\  /    A nd           | Version:  9
     \\/     M anipulation  |
\*---------------------------------------------------------------------------*/
FoamFile
{
    format      ascii;
    class       volScalarField;
    location    "172800";
    object      T;
}
// * * * * * * * * * * * * * * * * * * * * * * * * * * * * * * * * * * * * * //

dimensions      [0 0 0 1 0 0 0];

internalField   nonuniform List<scalar> 
100
(
383.554
382.554
381.554
380.554
379.554
378.554
377.555
376.555
375.555
374.556
373.557
372.557
371.559
370.56
369.561
368.563
367.565
366.567
365.57
364.573
363.577
362.581
361.585
360.59
359.596
358.603
357.61
356.618
355.627
354.636
353.647
352.658
351.671
350.685
349.7
348.717
347.735
346.754
345.775
344.797
343.821
342.847
341.875
340.905
339.936
338.97
338.006
337.045
336.086
335.129
334.175
333.224
332.276
331.331
330.388
329.449
328.513
327.581
326.652
325.727
324.805
323.888
322.974
322.065
321.16
320.26
319.364
318.472
317.586
316.704
315.828
314.957
314.091
313.231
312.376
311.527
310.685
309.848
309.018
308.194
307.377
306.567
305.763
304.967
304.178
303.396
302.622
301.856
301.097
300.347
299.604
298.871
298.145
297.429
296.722
296.023
295.334
294.654
293.984
293.324
)
;

boundaryField
{
    left
    {
        type            fixedGradient;
        gradient        uniform 500;
    }
    right
    {
        type            uniformFixedValue;
        uniformValue    
        {
            type            sine;
            amplitude       
            {
                type            constant;
                value           20;
            }
            frequency       1.1574e-05;
            start           0;
            level           
            {
                type            constant;
                value           293;
            }
        }
        value           uniform 292.998;
    }
    frontAndBack
    {
        type            empty;
    }
    top_bottom
    {
        type            zeroGradient;
    }
}


// ************************************************************************* //
