/*--------------------------------*- C++ -*----------------------------------*\
  =========                 |
  \\      /  F ield         | OpenFOAM: The Open Source CFD Toolbox
   \\    /   O peration     | Website:  https://openfoam.org
    \\  /    A nd           | Version:  9
     \\/     M anipulation  |
\*---------------------------------------------------------------------------*/
FoamFile
{
    format      ascii;
    class       volScalarField;
    location    "172800";
    object      T_0;
}
// * * * * * * * * * * * * * * * * * * * * * * * * * * * * * * * * * * * * * //

dimensions      [0 0 0 1 0 0 0];

internalField   nonuniform List<scalar> 
100
(
383.554
382.554
381.554
380.554
379.553
378.553
377.553
376.552
375.552
374.551
373.551
372.551
371.55
370.55
369.55
368.55
367.55
366.551
365.552
364.553
363.554
362.556
361.558
360.56
359.563
358.567
357.571
356.576
355.582
354.588
353.596
352.604
351.613
350.623
349.635
348.647
347.661
346.676
345.693
344.711
343.731
342.752
341.775
340.8
339.827
338.856
337.887
336.92
335.956
334.994
334.034
333.078
332.124
331.172
330.224
329.279
328.337
327.398
326.463
325.532
324.604
323.679
322.759
321.843
320.931
320.024
319.12
318.222
317.328
316.439
315.555
314.676
313.803
312.935
312.073
311.216
310.366
309.521
308.683
307.851
307.025
306.206
305.395
304.59
303.792
303.002
302.219
301.444
300.677
299.917
299.166
298.424
297.69
296.964
296.248
295.54
294.842
294.153
293.474
292.805
)
;

boundaryField
{
    left
    {
        type            fixedGradient;
        gradient        uniform 500;
    }
    right
    {
        type            uniformFixedValue;
        uniformValue    
        {
            type            sine;
            amplitude       
            {
                type            constant;
                value           20;
            }
            frequency       1.1574e-05;
            start           0;
            level           
            {
                type            constant;
                value           293;
            }
        }
        value           uniform 292.475;
    }
    frontAndBack
    {
        type            empty;
    }
    top_bottom
    {
        type            zeroGradient;
    }
}


// ************************************************************************* //
