/*--------------------------------*- C++ -*----------------------------------*\
  =========                 |
  \\      /  F ield         | OpenFOAM: The Open Source CFD Toolbox
   \\    /   O peration     | Website:  https://openfoam.org
    \\  /    A nd           | Version:  9
     \\/     M anipulation  |
\*---------------------------------------------------------------------------*/
FoamFile
{
    format      ascii;
    class       volScalarField;
    location    "93600";
    object      ddt0(T);
}
// * * * * * * * * * * * * * * * * * * * * * * * * * * * * * * * * * * * * * //

dimensions      [0 0 -1 1 0 0 0];

internalField   nonuniform List<scalar> 
100
(
0.000531027
0.000531244
0.000531678
0.000532328
0.000533195
0.000534278
0.000535577
0.000537092
0.000538823
0.000540768
0.000542927
0.0005453
0.000547886
0.000550684
0.000553694
0.000556915
0.000560345
0.000563984
0.000567832
0.000571885
0.000576145
0.000580609
0.000585275
0.000590144
0.000595212
0.000600479
0.000605943
0.000611602
0.000617455
0.000623499
0.000629733
0.000636155
0.000642762
0.000649552
0.000656524
0.000663673
0.000670999
0.000678498
0.000686168
0.000694005
0.000702008
0.000710172
0.000718495
0.000726973
0.000735602
0.000744381
0.000753304
0.000762368
0.000771569
0.000780902
0.000790365
0.000799952
0.000809659
0.000819481
0.000829413
0.000839451
0.00084959
0.000859823
0.000870147
0.000880554
0.00089104
0.000901598
0.000912223
0.000922907
0.000933645
0.00094443
0.000955254
0.000966112
0.000976995
0.000987896
0.000998807
0.00100972
0.00102063
0.00103152
0.00104239
0.00105323
0.00106403
0.00107478
0.00108547
0.00109609
0.00110664
0.00111709
0.00112744
0.00113768
0.0011478
0.00115779
0.00116763
0.00117732
0.00118684
0.00119618
0.00120532
0.00121426
0.00122297
0.00123146
0.00123969
0.00124767
0.00125537
0.00126277
0.00126988
0.00127666
)
;

boundaryField
{
    left
    {
        type            calculated;
        value           uniform 0.000531027;
    }
    right
    {
        type            calculated;
        value           uniform 0.00127988;
    }
    frontAndBack
    {
        type            empty;
    }
    top_bottom
    {
        type            calculated;
        value           nonuniform List<scalar> 
200
(
0.000531027
0.000531244
0.000531678
0.000532328
0.000533195
0.000534278
0.000535577
0.000537092
0.000538823
0.000540768
0.000542927
0.0005453
0.000547886
0.000550684
0.000553694
0.000556915
0.000560345
0.000563984
0.000567832
0.000571885
0.000576145
0.000580609
0.000585275
0.000590144
0.000595212
0.000600479
0.000605943
0.000611602
0.000617455
0.000623499
0.000629733
0.000636155
0.000642762
0.000649552
0.000656524
0.000663673
0.000670999
0.000678498
0.000686168
0.000694005
0.000702008
0.000710172
0.000718495
0.000726973
0.000735602
0.000744381
0.000753304
0.000762368
0.000771569
0.000780902
0.000790365
0.000799952
0.000809659
0.000819481
0.000829413
0.000839451
0.00084959
0.000859823
0.000870147
0.000880554
0.00089104
0.000901598
0.000912223
0.000922907
0.000933645
0.00094443
0.000955254
0.000966112
0.000976995
0.000987896
0.000998807
0.00100972
0.00102063
0.00103152
0.00104239
0.00105323
0.00106403
0.00107478
0.00108547
0.00109609
0.00110664
0.00111709
0.00112744
0.00113768
0.0011478
0.00115779
0.00116763
0.00117732
0.00118684
0.00119618
0.00120532
0.00121426
0.00122297
0.00123146
0.00123969
0.00124767
0.00125537
0.00126277
0.00126988
0.00127666
0.000531027
0.000531244
0.000531678
0.000532328
0.000533195
0.000534278
0.000535577
0.000537092
0.000538823
0.000540768
0.000542927
0.0005453
0.000547886
0.000550684
0.000553694
0.000556915
0.000560345
0.000563984
0.000567832
0.000571885
0.000576145
0.000580609
0.000585275
0.000590144
0.000595212
0.000600479
0.000605943
0.000611602
0.000617455
0.000623499
0.000629733
0.000636155
0.000642762
0.000649552
0.000656524
0.000663673
0.000670999
0.000678498
0.000686168
0.000694005
0.000702008
0.000710172
0.000718495
0.000726973
0.000735602
0.000744381
0.000753304
0.000762368
0.000771569
0.000780902
0.000790365
0.000799952
0.000809659
0.000819481
0.000829413
0.000839451
0.00084959
0.000859823
0.000870147
0.000880554
0.00089104
0.000901598
0.000912223
0.000922907
0.000933645
0.00094443
0.000955254
0.000966112
0.000976995
0.000987896
0.000998807
0.00100972
0.00102063
0.00103152
0.00104239
0.00105323
0.00106403
0.00107478
0.00108547
0.00109609
0.00110664
0.00111709
0.00112744
0.00113768
0.0011478
0.00115779
0.00116763
0.00117732
0.00118684
0.00119618
0.00120532
0.00121426
0.00122297
0.00123146
0.00123969
0.00124767
0.00125537
0.00126277
0.00126988
0.00127666
)
;
    }
}


// ************************************************************************* //
