/*--------------------------------*- C++ -*----------------------------------*\
  =========                 |
  \\      /  F ield         | OpenFOAM: The Open Source CFD Toolbox
   \\    /   O peration     | Website:  https://openfoam.org
    \\  /    A nd           | Version:  9
     \\/     M anipulation  |
\*---------------------------------------------------------------------------*/
FoamFile
{
    format      ascii;
    class       volScalarField;
    location    "93600";
    object      gradTx;
}
// * * * * * * * * * * * * * * * * * * * * * * * * * * * * * * * * * * * * * //

dimensions      [0 -1 0 1 0 0 0];

internalField   nonuniform List<scalar> 
100
(
-499.065
-497.195
-495.324
-493.45
-491.575
-489.696
-487.813
-485.925
-484.031
-482.132
-480.225
-478.311
-476.388
-474.456
-472.514
-470.562
-468.598
-466.623
-464.635
-462.633
-460.617
-458.586
-456.54
-454.478
-452.399
-450.302
-448.187
-446.053
-443.9
-441.727
-439.533
-437.317
-435.079
-432.819
-430.535
-428.228
-425.896
-423.539
-421.156
-418.747
-416.311
-413.848
-411.358
-408.838
-406.29
-403.713
-401.106
-398.468
-395.8
-393.101
-390.37
-387.607
-384.811
-381.983
-379.121
-376.226
-373.297
-370.334
-367.337
-364.305
-361.238
-358.136
-354.998
-351.825
-348.616
-345.371
-342.09
-338.774
-335.421
-332.032
-328.606
-325.145
-321.647
-318.114
-314.544
-310.939
-307.298
-303.621
-299.909
-296.163
-292.382
-288.566
-284.717
-280.834
-276.917
-272.969
-268.988
-264.976
-260.933
-256.859
-252.756
-248.625
-244.465
-240.278
-236.065
-231.827
-227.564
-223.278
-218.969
-214.64
)
;

boundaryField
{
    left
    {
        type            calculated;
        value           uniform -500;
    }
    right
    {
        type            calculated;
        value           uniform -212.47;
    }
    frontAndBack
    {
        type            empty;
    }
    top_bottom
    {
        type            calculated;
        value           nonuniform List<scalar> 
200
(
-499.065
-497.195
-495.324
-493.45
-491.575
-489.696
-487.813
-485.925
-484.031
-482.132
-480.225
-478.311
-476.388
-474.456
-472.514
-470.562
-468.598
-466.623
-464.635
-462.633
-460.617
-458.586
-456.54
-454.478
-452.399
-450.302
-448.187
-446.053
-443.9
-441.727
-439.533
-437.317
-435.079
-432.819
-430.535
-428.228
-425.896
-423.539
-421.156
-418.747
-416.311
-413.848
-411.358
-408.838
-406.29
-403.713
-401.106
-398.468
-395.8
-393.101
-390.37
-387.607
-384.811
-381.983
-379.121
-376.226
-373.297
-370.334
-367.337
-364.305
-361.238
-358.136
-354.998
-351.825
-348.616
-345.371
-342.09
-338.774
-335.421
-332.032
-328.606
-325.145
-321.647
-318.114
-314.544
-310.939
-307.298
-303.621
-299.909
-296.163
-292.382
-288.566
-284.717
-280.834
-276.917
-272.969
-268.988
-264.976
-260.933
-256.859
-252.756
-248.625
-244.465
-240.278
-236.065
-231.827
-227.564
-223.278
-218.969
-214.64
-499.065
-497.195
-495.324
-493.45
-491.575
-489.696
-487.813
-485.925
-484.031
-482.132
-480.225
-478.311
-476.388
-474.456
-472.514
-470.562
-468.598
-466.623
-464.635
-462.633
-460.617
-458.586
-456.54
-454.478
-452.399
-450.302
-448.187
-446.053
-443.9
-441.727
-439.533
-437.317
-435.079
-432.819
-430.535
-428.228
-425.896
-423.539
-421.156
-418.747
-416.311
-413.848
-411.358
-408.838
-406.29
-403.713
-401.106
-398.468
-395.8
-393.101
-390.37
-387.607
-384.811
-381.983
-379.121
-376.226
-373.297
-370.334
-367.337
-364.305
-361.238
-358.136
-354.998
-351.825
-348.616
-345.371
-342.09
-338.774
-335.421
-332.032
-328.606
-325.145
-321.647
-318.114
-314.544
-310.939
-307.298
-303.621
-299.909
-296.163
-292.382
-288.566
-284.717
-280.834
-276.917
-272.969
-268.988
-264.976
-260.933
-256.859
-252.756
-248.625
-244.465
-240.278
-236.065
-231.827
-227.564
-223.278
-218.969
-214.64
)
;
    }
}


// ************************************************************************* //
