/*--------------------------------*- C++ -*----------------------------------*\
  =========                 |
  \\      /  F ield         | OpenFOAM: The Open Source CFD Toolbox
   \\    /   O peration     | Website:  https://openfoam.org
    \\  /    A nd           | Version:  9
     \\/     M anipulation  |
\*---------------------------------------------------------------------------*/
FoamFile
{
    format      ascii;
    class       volScalarField;
    location    "93600";
    object      T;
}
// * * * * * * * * * * * * * * * * * * * * * * * * * * * * * * * * * * * * * //

dimensions      [0 0 0 1 0 0 0];

internalField   nonuniform List<scalar> 
100
(
378.363
377.367
376.375
375.386
374.401
373.42
372.442
371.468
370.498
369.532
368.57
367.611
366.657
365.706
364.759
363.816
362.877
361.941
361.01
360.083
359.16
358.24
357.325
356.414
355.507
354.605
353.706
352.812
351.922
351.036
350.155
349.278
348.406
347.538
346.674
345.816
344.961
344.112
343.267
342.427
341.592
340.762
339.937
339.117
338.302
337.492
336.687
335.887
335.093
334.304
333.52
332.742
331.97
331.203
330.442
329.687
328.937
328.194
327.456
326.724
325.999
325.279
324.566
323.859
323.159
322.465
321.777
321.096
320.422
319.755
319.094
318.44
317.794
317.154
316.521
315.896
315.277
314.666
314.063
313.467
312.878
312.297
311.724
311.158
310.601
310.051
309.509
308.975
308.449
307.931
307.421
306.92
306.427
305.942
305.466
304.998
304.538
304.088
303.645
303.212
)
;

boundaryField
{
    left
    {
        type            fixedGradient;
        gradient        uniform 500;
    }
    right
    {
        type            uniformFixedValue;
        uniformValue    
        {
            type            sine;
            amplitude       
            {
                type            constant;
                value           20;
            }
            frequency       1.1574e-05;
            start           0;
            level           
            {
                type            constant;
                value           293;
            }
        }
        value           uniform 302.999;
    }
    frontAndBack
    {
        type            empty;
    }
    top_bottom
    {
        type            zeroGradient;
    }
}


// ************************************************************************* //
