/*--------------------------------*- C++ -*----------------------------------*\
  =========                 |
  \\      /  F ield         | OpenFOAM: The Open Source CFD Toolbox
   \\    /   O peration     | Website:  https://openfoam.org
    \\  /    A nd           | Version:  9
     \\/     M anipulation  |
\*---------------------------------------------------------------------------*/
FoamFile
{
    format      ascii;
    class       volScalarField;
    location    "93600";
    object      T_0;
}
// * * * * * * * * * * * * * * * * * * * * * * * * * * * * * * * * * * * * * //

dimensions      [0 0 0 1 0 0 0];

internalField   nonuniform List<scalar> 
100
(
378.17
377.174
376.181
375.192
374.207
373.225
372.247
371.273
370.302
369.335
368.372
367.413
366.457
365.505
364.557
363.613
362.673
361.736
360.803
359.875
358.95
358.029
357.112
356.2
355.291
354.386
353.486
352.59
351.697
350.81
349.926
349.047
348.172
347.302
346.436
345.575
344.718
343.866
343.018
342.176
341.338
340.505
339.677
338.853
338.035
337.222
336.414
335.611
334.814
334.021
333.235
332.453
331.677
330.907
330.142
329.383
328.63
327.883
327.142
326.406
325.677
324.954
324.237
323.526
322.822
322.124
321.433
320.748
320.07
319.399
318.735
318.077
317.426
316.783
316.146
315.517
314.895
314.28
313.673
313.073
312.481
311.896
311.319
310.75
310.189
309.636
309.09
308.553
308.024
307.503
306.99
306.485
305.989
305.502
305.022
304.552
304.09
303.636
303.192
302.756
)
;

boundaryField
{
    left
    {
        type            fixedGradient;
        gradient        uniform 500;
    }
    right
    {
        type            uniformFixedValue;
        uniformValue    
        {
            type            sine;
            amplitude       
            {
                type            constant;
                value           20;
            }
            frequency       1.1574e-05;
            start           0;
            level           
            {
                type            constant;
                value           293;
            }
        }
        value           uniform 302.542;
    }
    frontAndBack
    {
        type            empty;
    }
    top_bottom
    {
        type            zeroGradient;
    }
}


// ************************************************************************* //
