/*--------------------------------*- C++ -*----------------------------------*\
  =========                 |
  \\      /  F ield         | OpenFOAM: The Open Source CFD Toolbox
   \\    /   O peration     | Website:  https://openfoam.org
    \\  /    A nd           | Version:  9
     \\/     M anipulation  |
\*---------------------------------------------------------------------------*/
FoamFile
{
    format      ascii;
    class       volScalarField;
    location    "57600";
    object      ddt0(T);
}
// * * * * * * * * * * * * * * * * * * * * * * * * * * * * * * * * * * * * * //

dimensions      [0 0 -1 1 0 0 0];

internalField   nonuniform List<scalar> 
100
(
0.000350545
0.000350162
0.000349395
0.000348245
0.000346712
0.000344798
0.000342503
0.000339828
0.000336775
0.000333345
0.00032954
0.000325361
0.000320811
0.000315892
0.000310607
0.000304957
0.000298946
0.000292576
0.000285852
0.000278775
0.000271351
0.000263582
0.000255472
0.000247026
0.000238248
0.000229142
0.000219714
0.000209967
0.000199908
0.000189541
0.000178871
0.000167906
0.000156649
0.000145109
0.00013329
0.000121199
0.000108843
9.62293e-05
8.33642e-05
7.02554e-05
5.69102e-05
4.33364e-05
2.95418e-05
1.55346e-05
1.32317e-06
-1.30841e-05
-2.76784e-05
-4.24509e-05
-5.73923e-05
-7.24933e-05
-8.77444e-05
-0.000103136
-0.000118657
-0.000134299
-0.00015005
-0.0001659
-0.000181838
-0.000197853
-0.000213934
-0.000230069
-0.000246246
-0.000262454
-0.00027868
-0.000294911
-0.000311136
-0.000327342
-0.000343514
-0.000359641
-0.000375708
-0.000391702
-0.000407608
-0.000423413
-0.000439102
-0.000454661
-0.000470074
-0.000485327
-0.000500403
-0.000515289
-0.000529967
-0.000544422
-0.000558637
-0.000572597
-0.000586284
-0.000599682
-0.000612773
-0.00062554
-0.000637965
-0.000650032
-0.000661721
-0.000673014
-0.000683894
-0.000694341
-0.000704337
-0.000713862
-0.000722897
-0.000731423
-0.00073942
-0.000746868
-0.000753747
-0.000760036
)
;

boundaryField
{
    left
    {
        type            calculated;
        value           uniform 0.000350545;
    }
    right
    {
        type            calculated;
        value           uniform -0.000762876;
    }
    frontAndBack
    {
        type            empty;
    }
    top_bottom
    {
        type            calculated;
        value           nonuniform List<scalar> 
200
(
0.000350545
0.000350162
0.000349395
0.000348245
0.000346712
0.000344798
0.000342503
0.000339828
0.000336775
0.000333345
0.00032954
0.000325361
0.000320811
0.000315892
0.000310607
0.000304957
0.000298946
0.000292576
0.000285852
0.000278775
0.000271351
0.000263582
0.000255472
0.000247026
0.000238248
0.000229142
0.000219714
0.000209967
0.000199908
0.000189541
0.000178871
0.000167906
0.000156649
0.000145109
0.00013329
0.000121199
0.000108843
9.62293e-05
8.33642e-05
7.02554e-05
5.69102e-05
4.33364e-05
2.95418e-05
1.55346e-05
1.32317e-06
-1.30841e-05
-2.76784e-05
-4.24509e-05
-5.73923e-05
-7.24933e-05
-8.77444e-05
-0.000103136
-0.000118657
-0.000134299
-0.00015005
-0.0001659
-0.000181838
-0.000197853
-0.000213934
-0.000230069
-0.000246246
-0.000262454
-0.00027868
-0.000294911
-0.000311136
-0.000327342
-0.000343514
-0.000359641
-0.000375708
-0.000391702
-0.000407608
-0.000423413
-0.000439102
-0.000454661
-0.000470074
-0.000485327
-0.000500403
-0.000515289
-0.000529967
-0.000544422
-0.000558637
-0.000572597
-0.000586284
-0.000599682
-0.000612773
-0.00062554
-0.000637965
-0.000650032
-0.000661721
-0.000673014
-0.000683894
-0.000694341
-0.000704337
-0.000713862
-0.000722897
-0.000731423
-0.00073942
-0.000746868
-0.000753747
-0.000760036
0.000350545
0.000350162
0.000349395
0.000348245
0.000346712
0.000344798
0.000342503
0.000339828
0.000336775
0.000333345
0.00032954
0.000325361
0.000320811
0.000315892
0.000310607
0.000304957
0.000298946
0.000292576
0.000285852
0.000278775
0.000271351
0.000263582
0.000255472
0.000247026
0.000238248
0.000229142
0.000219714
0.000209967
0.000199908
0.000189541
0.000178871
0.000167906
0.000156649
0.000145109
0.00013329
0.000121199
0.000108843
9.62293e-05
8.33642e-05
7.02554e-05
5.69102e-05
4.33364e-05
2.95418e-05
1.55346e-05
1.32317e-06
-1.30841e-05
-2.76784e-05
-4.24509e-05
-5.73923e-05
-7.24933e-05
-8.77444e-05
-0.000103136
-0.000118657
-0.000134299
-0.00015005
-0.0001659
-0.000181838
-0.000197853
-0.000213934
-0.000230069
-0.000246246
-0.000262454
-0.00027868
-0.000294911
-0.000311136
-0.000327342
-0.000343514
-0.000359641
-0.000375708
-0.000391702
-0.000407608
-0.000423413
-0.000439102
-0.000454661
-0.000470074
-0.000485327
-0.000500403
-0.000515289
-0.000529967
-0.000544422
-0.000558637
-0.000572597
-0.000586284
-0.000599682
-0.000612773
-0.00062554
-0.000637965
-0.000650032
-0.000661721
-0.000673014
-0.000683894
-0.000694341
-0.000704337
-0.000713862
-0.000722897
-0.000731423
-0.00073942
-0.000746868
-0.000753747
-0.000760036
)
;
    }
}


// ************************************************************************* //
