/*--------------------------------*- C++ -*----------------------------------*\
  =========                 |
  \\      /  F ield         | OpenFOAM: The Open Source CFD Toolbox
   \\    /   O peration     | Website:  https://openfoam.org
    \\  /    A nd           | Version:  9
     \\/     M anipulation  |
\*---------------------------------------------------------------------------*/
FoamFile
{
    format      ascii;
    class       volScalarField;
    location    "57600";
    object      gradTx;
}
// * * * * * * * * * * * * * * * * * * * * * * * * * * * * * * * * * * * * * //

dimensions      [0 -1 0 1 0 0 0];

internalField   nonuniform List<scalar> 
100
(
-499.43
-498.29
-497.151
-496.016
-494.886
-493.761
-492.644
-491.534
-490.435
-489.346
-488.27
-487.206
-486.158
-485.125
-484.11
-483.113
-482.135
-481.179
-480.244
-479.332
-478.445
-477.583
-476.748
-475.941
-475.163
-474.414
-473.697
-473.012
-472.36
-471.742
-471.16
-470.614
-470.105
-469.634
-469.202
-468.811
-468.46
-468.151
-467.885
-467.662
-467.484
-467.35
-467.262
-467.221
-467.227
-467.28
-467.382
-467.533
-467.734
-467.985
-468.286
-468.638
-469.042
-469.497
-470.005
-470.566
-471.179
-471.845
-472.565
-473.338
-474.164
-475.044
-475.978
-476.966
-478.007
-479.102
-480.251
-481.452
-482.707
-484.014
-485.374
-486.786
-488.25
-489.765
-491.33
-492.946
-494.611
-496.325
-498.088
-499.897
-501.753
-503.655
-505.601
-507.591
-509.623
-511.697
-513.812
-515.965
-518.156
-520.383
-522.645
-524.941
-527.268
-529.626
-532.012
-534.425
-536.862
-539.323
-541.805
-544.306
)
;

boundaryField
{
    left
    {
        type            calculated;
        value           uniform -500;
    }
    right
    {
        type            calculated;
        value           uniform -545.561;
    }
    frontAndBack
    {
        type            empty;
    }
    top_bottom
    {
        type            calculated;
        value           nonuniform List<scalar> 
200
(
-499.43
-498.29
-497.151
-496.016
-494.886
-493.761
-492.644
-491.534
-490.435
-489.346
-488.27
-487.206
-486.158
-485.125
-484.11
-483.113
-482.135
-481.179
-480.244
-479.332
-478.445
-477.583
-476.748
-475.941
-475.163
-474.414
-473.697
-473.012
-472.36
-471.742
-471.16
-470.614
-470.105
-469.634
-469.202
-468.811
-468.46
-468.151
-467.885
-467.662
-467.484
-467.35
-467.262
-467.221
-467.227
-467.28
-467.382
-467.533
-467.734
-467.985
-468.286
-468.638
-469.042
-469.497
-470.005
-470.566
-471.179
-471.845
-472.565
-473.338
-474.164
-475.044
-475.978
-476.966
-478.007
-479.102
-480.251
-481.452
-482.707
-484.014
-485.374
-486.786
-488.25
-489.765
-491.33
-492.946
-494.611
-496.325
-498.088
-499.897
-501.753
-503.655
-505.601
-507.591
-509.623
-511.697
-513.812
-515.965
-518.156
-520.383
-522.645
-524.941
-527.268
-529.626
-532.012
-534.425
-536.862
-539.323
-541.805
-544.306
-499.43
-498.29
-497.151
-496.016
-494.886
-493.761
-492.644
-491.534
-490.435
-489.346
-488.27
-487.206
-486.158
-485.125
-484.11
-483.113
-482.135
-481.179
-480.244
-479.332
-478.445
-477.583
-476.748
-475.941
-475.163
-474.414
-473.697
-473.012
-472.36
-471.742
-471.16
-470.614
-470.105
-469.634
-469.202
-468.811
-468.46
-468.151
-467.885
-467.662
-467.484
-467.35
-467.262
-467.221
-467.227
-467.28
-467.382
-467.533
-467.734
-467.985
-468.286
-468.638
-469.042
-469.497
-470.005
-470.566
-471.179
-471.845
-472.565
-473.338
-474.164
-475.044
-475.978
-476.966
-478.007
-479.102
-480.251
-481.452
-482.707
-484.014
-485.374
-486.786
-488.25
-489.765
-491.33
-492.946
-494.611
-496.325
-498.088
-499.897
-501.753
-503.655
-505.601
-507.591
-509.623
-511.697
-513.812
-515.965
-518.156
-520.383
-522.645
-524.941
-527.268
-529.626
-532.012
-534.425
-536.862
-539.323
-541.805
-544.306
)
;
    }
}


// ************************************************************************* //
