/*--------------------------------*- C++ -*----------------------------------*\
  =========                 |
  \\      /  F ield         | OpenFOAM: The Open Source CFD Toolbox
   \\    /   O peration     | Website:  https://openfoam.org
    \\  /    A nd           | Version:  9
     \\/     M anipulation  |
\*---------------------------------------------------------------------------*/
FoamFile
{
    format      ascii;
    class       volScalarField;
    location    "57600";
    object      T;
}
// * * * * * * * * * * * * * * * * * * * * * * * * * * * * * * * * * * * * * //

dimensions      [0 0 0 1 0 0 0];

internalField   nonuniform List<scalar> 
100
(
372.686
371.688
370.693
369.7
368.709
367.72
366.734
365.749
364.768
363.788
362.81
361.835
360.861
359.89
358.921
357.954
356.988
356.025
355.064
354.104
353.146
352.19
351.236
350.283
349.332
348.383
347.435
346.488
345.543
344.598
343.656
342.714
341.773
340.833
339.895
338.957
338.019
337.083
336.147
335.211
334.276
333.341
332.407
331.472
330.538
329.603
328.669
327.734
326.799
325.863
324.927
323.99
323.052
322.114
321.174
320.233
319.292
318.349
317.404
316.459
315.511
314.562
313.611
312.658
311.703
310.746
309.787
308.825
307.861
306.894
305.925
304.953
303.978
303
302.019
301.034
300.047
299.056
298.061
297.063
296.062
295.056
294.047
293.034
292.017
290.996
289.97
288.94
287.906
286.868
285.825
284.777
283.725
282.668
281.606
280.54
279.469
278.393
277.311
276.225
)
;

boundaryField
{
    left
    {
        type            fixedGradient;
        gradient        uniform 500;
    }
    right
    {
        type            uniformFixedValue;
        uniformValue    
        {
            type            sine;
            amplitude       
            {
                type            constant;
                value           20;
            }
            frequency       1.1574e-05;
            start           0;
            level           
            {
                type            constant;
                value           293;
            }
        }
        value           uniform 275.68;
    }
    frontAndBack
    {
        type            empty;
    }
    top_bottom
    {
        type            zeroGradient;
    }
}


// ************************************************************************* //
