/*--------------------------------*- C++ -*----------------------------------*\
  =========                 |
  \\      /  F ield         | OpenFOAM: The Open Source CFD Toolbox
   \\    /   O peration     | Website:  https://openfoam.org
    \\  /    A nd           | Version:  9
     \\/     M anipulation  |
\*---------------------------------------------------------------------------*/
FoamFile
{
    format      ascii;
    class       volScalarField;
    location    "57600";
    object      T_0;
}
// * * * * * * * * * * * * * * * * * * * * * * * * * * * * * * * * * * * * * //

dimensions      [0 0 0 1 0 0 0];

internalField   nonuniform List<scalar> 
100
(
372.564
371.566
370.571
369.578
368.588
367.6
366.614
365.631
364.65
363.672
362.696
361.722
360.75
359.78
358.813
357.848
356.885
355.924
354.965
354.008
353.052
352.099
351.148
350.198
349.25
348.304
347.359
346.416
345.474
344.533
343.594
342.656
341.72
340.784
339.85
338.916
337.983
337.051
336.119
335.188
334.258
333.328
332.398
331.469
330.539
329.61
328.681
327.751
326.821
325.891
324.96
324.028
323.096
322.163
321.229
320.294
319.358
318.421
317.482
316.542
315.6
314.656
313.711
312.764
311.815
310.863
309.91
308.954
307.995
307.034
306.07
305.104
304.134
303.162
302.186
301.207
300.225
299.239
298.25
297.257
296.26
295.26
294.255
293.246
292.234
291.217
290.196
289.17
288.14
287.105
286.066
285.022
283.973
282.92
281.861
280.797
279.729
278.655
277.576
276.492
)
;

boundaryField
{
    left
    {
        type            fixedGradient;
        gradient        uniform 500;
    }
    right
    {
        type            uniformFixedValue;
        uniformValue    
        {
            type            sine;
            amplitude       
            {
                type            constant;
                value           20;
            }
            frequency       1.1574e-05;
            start           0;
            level           
            {
                type            constant;
                value           293;
            }
        }
        value           uniform 275.947;
    }
    frontAndBack
    {
        type            empty;
    }
    top_bottom
    {
        type            zeroGradient;
    }
}


// ************************************************************************* //
