/*--------------------------------*- C++ -*----------------------------------*\
  =========                 |
  \\      /  F ield         | OpenFOAM: The Open Source CFD Toolbox
   \\    /   O peration     | Website:  https://openfoam.org
    \\  /    A nd           | Version:  9
     \\/     M anipulation  |
\*---------------------------------------------------------------------------*/
FoamFile
{
    format      ascii;
    class       volScalarField;
    location    "32400";
    object      ddt0(T);
}
// * * * * * * * * * * * * * * * * * * * * * * * * * * * * * * * * * * * * * //

dimensions      [0 0 -1 1 0 0 0];

internalField   nonuniform List<scalar> 
100
(
0.00261328
0.00261254
0.00261105
0.00260883
0.00260586
0.00260215
0.00259769
0.0025925
0.00258656
0.00257988
0.00257246
0.0025643
0.0025554
0.00254575
0.00253537
0.00252424
0.00251237
0.00249977
0.00248642
0.00247233
0.00245751
0.00244194
0.00242564
0.00240859
0.00239081
0.00237229
0.00235304
0.00233305
0.00231232
0.00229085
0.00226865
0.00224572
0.00222205
0.00219764
0.00217251
0.00214664
0.00212004
0.00209271
0.00206465
0.00203586
0.00200634
0.00197609
0.00194511
0.00191341
0.00188099
0.00184784
0.00181396
0.00177937
0.00174405
0.00170802
0.00167127
0.0016338
0.00159561
0.00155671
0.00151709
0.00147677
0.00143573
0.00139399
0.00135154
0.00130839
0.00126453
0.00121997
0.00117471
0.00112876
0.00108211
0.00103477
0.000986733
0.000938012
0.000888606
0.000838517
0.000787747
0.000736301
0.000684179
0.000631386
0.000577924
0.000523797
0.000469008
0.00041356
0.000357457
0.000300703
0.000243302
0.000185257
0.000126573
6.72532e-05
7.303e-06
-5.32733e-05
-0.000114471
-0.000176285
-0.000238711
-0.000301743
-0.000365376
-0.000429603
-0.000494421
-0.000559821
-0.000625799
-0.000692348
-0.000759461
-0.000827131
-0.000895351
-0.000964114
)
;

boundaryField
{
    left
    {
        type            calculated;
        value           uniform 0.00261328;
    }
    right
    {
        type            calculated;
        value           uniform -0.000998764;
    }
    frontAndBack
    {
        type            empty;
    }
    top_bottom
    {
        type            calculated;
        value           nonuniform List<scalar> 
200
(
0.00261328
0.00261254
0.00261105
0.00260883
0.00260586
0.00260215
0.00259769
0.0025925
0.00258656
0.00257988
0.00257246
0.0025643
0.0025554
0.00254575
0.00253537
0.00252424
0.00251237
0.00249977
0.00248642
0.00247233
0.00245751
0.00244194
0.00242564
0.00240859
0.00239081
0.00237229
0.00235304
0.00233305
0.00231232
0.00229085
0.00226865
0.00224572
0.00222205
0.00219764
0.00217251
0.00214664
0.00212004
0.00209271
0.00206465
0.00203586
0.00200634
0.00197609
0.00194511
0.00191341
0.00188099
0.00184784
0.00181396
0.00177937
0.00174405
0.00170802
0.00167127
0.0016338
0.00159561
0.00155671
0.00151709
0.00147677
0.00143573
0.00139399
0.00135154
0.00130839
0.00126453
0.00121997
0.00117471
0.00112876
0.00108211
0.00103477
0.000986733
0.000938012
0.000888606
0.000838517
0.000787747
0.000736301
0.000684179
0.000631386
0.000577924
0.000523797
0.000469008
0.00041356
0.000357457
0.000300703
0.000243302
0.000185257
0.000126573
6.72532e-05
7.303e-06
-5.32733e-05
-0.000114471
-0.000176285
-0.000238711
-0.000301743
-0.000365376
-0.000429603
-0.000494421
-0.000559821
-0.000625799
-0.000692348
-0.000759461
-0.000827131
-0.000895351
-0.000964114
0.00261328
0.00261254
0.00261105
0.00260883
0.00260586
0.00260215
0.00259769
0.0025925
0.00258656
0.00257988
0.00257246
0.0025643
0.0025554
0.00254575
0.00253537
0.00252424
0.00251237
0.00249977
0.00248642
0.00247233
0.00245751
0.00244194
0.00242564
0.00240859
0.00239081
0.00237229
0.00235304
0.00233305
0.00231232
0.00229085
0.00226865
0.00224572
0.00222205
0.00219764
0.00217251
0.00214664
0.00212004
0.00209271
0.00206465
0.00203586
0.00200634
0.00197609
0.00194511
0.00191341
0.00188099
0.00184784
0.00181396
0.00177937
0.00174405
0.00170802
0.00167127
0.0016338
0.00159561
0.00155671
0.00151709
0.00147677
0.00143573
0.00139399
0.00135154
0.00130839
0.00126453
0.00121997
0.00117471
0.00112876
0.00108211
0.00103477
0.000986733
0.000938012
0.000888606
0.000838517
0.000787747
0.000736301
0.000684179
0.000631386
0.000577924
0.000523797
0.000469008
0.00041356
0.000357457
0.000300703
0.000243302
0.000185257
0.000126573
6.72532e-05
7.303e-06
-5.32733e-05
-0.000114471
-0.000176285
-0.000238711
-0.000301743
-0.000365376
-0.000429603
-0.000494421
-0.000559821
-0.000625799
-0.000692348
-0.000759461
-0.000827131
-0.000895351
-0.000964114
)
;
    }
}


// ************************************************************************* //
