/*--------------------------------*- C++ -*----------------------------------*\
  =========                 |
  \\      /  F ield         | OpenFOAM: The Open Source CFD Toolbox
   \\    /   O peration     | Website:  https://openfoam.org
    \\  /    A nd           | Version:  9
     \\/     M anipulation  |
\*---------------------------------------------------------------------------*/
FoamFile
{
    format      ascii;
    class       volScalarField;
    location    "32400";
    object      gradTx;
}
// * * * * * * * * * * * * * * * * * * * * * * * * * * * * * * * * * * * * * //

dimensions      [0 -1 0 1 0 0 0];

internalField   nonuniform List<scalar> 
100
(
-495.561
-486.685
-477.812
-468.946
-460.088
-451.243
-442.411
-433.596
-424.8
-416.025
-407.275
-398.552
-389.859
-381.197
-372.57
-363.979
-355.429
-346.92
-338.456
-330.04
-321.673
-313.359
-305.099
-296.897
-288.755
-280.675
-272.661
-264.714
-256.837
-249.033
-241.303
-233.652
-226.081
-218.593
-211.19
-203.875
-196.65
-189.518
-182.481
-175.542
-168.704
-161.968
-155.338
-148.816
-142.404
-136.105
-129.921
-123.855
-117.91
-112.087
-106.39
-100.82
-95.3805
-90.0736
-84.9018
-79.8675
-74.9732
-70.2213
-65.6143
-61.1545
-56.8444
-52.6863
-48.6828
-44.8361
-41.1486
-37.6228
-34.261
-31.0656
-28.0389
-25.1832
-22.5009
-19.9944
-17.6658
-15.5176
-13.5519
-11.7712
-10.1776
-8.77346
-7.56094
-6.5423
-5.71976
-5.0955
-4.67173
-4.4506
-4.43428
-4.6249
-5.02458
-5.63542
-6.45952
-7.49893
-8.75571
-10.2319
-11.9294
-13.8504
-15.9967
-18.3703
-20.9731
-23.807
-26.8738
-30.1755
)
;

boundaryField
{
    left
    {
        type            calculated;
        value           uniform -500;
    }
    right
    {
        type            calculated;
        value           uniform -31.8852;
    }
    frontAndBack
    {
        type            empty;
    }
    top_bottom
    {
        type            calculated;
        value           nonuniform List<scalar> 
200
(
-495.561
-486.685
-477.812
-468.946
-460.088
-451.243
-442.411
-433.596
-424.8
-416.025
-407.275
-398.552
-389.859
-381.197
-372.57
-363.979
-355.429
-346.92
-338.456
-330.04
-321.673
-313.359
-305.099
-296.897
-288.755
-280.675
-272.661
-264.714
-256.837
-249.033
-241.303
-233.652
-226.081
-218.593
-211.19
-203.875
-196.65
-189.518
-182.481
-175.542
-168.704
-161.968
-155.338
-148.816
-142.404
-136.105
-129.921
-123.855
-117.91
-112.087
-106.39
-100.82
-95.3805
-90.0736
-84.9018
-79.8675
-74.9732
-70.2213
-65.6143
-61.1545
-56.8444
-52.6863
-48.6828
-44.8361
-41.1486
-37.6228
-34.261
-31.0656
-28.0389
-25.1832
-22.5009
-19.9944
-17.6658
-15.5176
-13.5519
-11.7712
-10.1776
-8.77346
-7.56094
-6.5423
-5.71976
-5.0955
-4.67173
-4.4506
-4.43428
-4.6249
-5.02458
-5.63542
-6.45952
-7.49893
-8.75571
-10.2319
-11.9294
-13.8504
-15.9967
-18.3703
-20.9731
-23.807
-26.8738
-30.1755
-495.561
-486.685
-477.812
-468.946
-460.088
-451.243
-442.411
-433.596
-424.8
-416.025
-407.275
-398.552
-389.859
-381.197
-372.57
-363.979
-355.429
-346.92
-338.456
-330.04
-321.673
-313.359
-305.099
-296.897
-288.755
-280.675
-272.661
-264.714
-256.837
-249.033
-241.303
-233.652
-226.081
-218.593
-211.19
-203.875
-196.65
-189.518
-182.481
-175.542
-168.704
-161.968
-155.338
-148.816
-142.404
-136.105
-129.921
-123.855
-117.91
-112.087
-106.39
-100.82
-95.3805
-90.0736
-84.9018
-79.8675
-74.9732
-70.2213
-65.6143
-61.1545
-56.8444
-52.6863
-48.6828
-44.8361
-41.1486
-37.6228
-34.261
-31.0656
-28.0389
-25.1832
-22.5009
-19.9944
-17.6658
-15.5176
-13.5519
-11.7712
-10.1776
-8.77346
-7.56094
-6.5423
-5.71976
-5.0955
-4.67173
-4.4506
-4.43428
-4.6249
-5.02458
-5.63542
-6.45952
-7.49893
-8.75571
-10.2319
-11.9294
-13.8504
-15.9967
-18.3703
-20.9731
-23.807
-26.8738
-30.1755
)
;
    }
}


// ************************************************************************* //
