/*--------------------------------*- C++ -*----------------------------------*\
  =========                 |
  \\      /  F ield         | OpenFOAM: The Open Source CFD Toolbox
   \\    /   O peration     | Website:  https://openfoam.org
    \\  /    A nd           | Version:  9
     \\/     M anipulation  |
\*---------------------------------------------------------------------------*/
FoamFile
{
    format      ascii;
    class       volScalarField;
    location    "32400";
    object      T;
}
// * * * * * * * * * * * * * * * * * * * * * * * * * * * * * * * * * * * * * //

dimensions      [0 0 0 1 0 0 0];

internalField   nonuniform List<scalar> 
100
(
338.973
337.991
337.027
336.08
335.151
334.24
333.346
332.47
331.612
330.771
329.947
329.142
328.353
327.582
326.828
326.092
325.373
324.67
323.985
323.316
322.665
322.03
321.411
320.809
320.224
319.654
319.101
318.564
318.042
317.536
317.046
316.571
316.111
315.667
315.237
314.822
314.422
314.035
313.663
313.305
312.961
312.631
312.313
312.009
311.718
311.44
311.174
310.92
310.678
310.448
310.23
310.023
309.827
309.641
309.466
309.302
309.147
309.002
308.866
308.739
308.621
308.512
308.411
308.317
308.231
308.153
308.081
308.016
307.957
307.903
307.856
307.813
307.776
307.743
307.714
307.689
307.667
307.648
307.632
307.618
307.605
307.595
307.585
307.576
307.567
307.558
307.549
307.538
307.526
307.512
307.496
307.477
307.455
307.43
307.4
307.366
307.326
307.282
307.231
307.174
)
;

boundaryField
{
    left
    {
        type            fixedGradient;
        gradient        uniform 500;
    }
    right
    {
        type            uniformFixedValue;
        uniformValue    
        {
            type            sine;
            amplitude       
            {
                type            constant;
                value           20;
            }
            frequency       1.1574e-05;
            start           0;
            level           
            {
                type            constant;
                value           293;
            }
        }
        value           uniform 307.142;
    }
    frontAndBack
    {
        type            empty;
    }
    top_bottom
    {
        type            zeroGradient;
    }
}


// ************************************************************************* //
