/*--------------------------------*- C++ -*----------------------------------*\
  =========                 |
  \\      /  F ield         | OpenFOAM: The Open Source CFD Toolbox
   \\    /   O peration     | Website:  https://openfoam.org
    \\  /    A nd           | Version:  9
     \\/     M anipulation  |
\*---------------------------------------------------------------------------*/
FoamFile
{
    format      ascii;
    class       volScalarField;
    location    "32400";
    object      T_0;
}
// * * * * * * * * * * * * * * * * * * * * * * * * * * * * * * * * * * * * * //

dimensions      [0 0 0 1 0 0 0];

internalField   nonuniform List<scalar> 
100
(
338.041
337.059
336.095
335.149
334.221
333.311
332.419
331.545
330.689
329.85
329.03
328.227
327.441
326.674
325.924
325.191
324.476
323.778
323.098
322.435
321.788
321.159
320.546
319.95
319.371
318.808
318.262
317.732
317.218
316.72
316.237
315.771
315.32
314.884
314.463
314.057
313.666
313.29
312.928
312.581
312.247
311.927
311.621
311.328
311.049
310.782
310.529
310.287
310.058
309.841
309.636
309.443
309.26
309.089
308.928
308.778
308.638
308.508
308.387
308.276
308.174
308.08
307.995
307.919
307.849
307.788
307.733
307.685
307.644
307.609
307.58
307.556
307.537
307.523
307.513
307.507
307.505
307.506
307.51
307.516
307.525
307.535
307.546
307.559
307.571
307.584
307.597
307.608
307.619
307.628
307.634
307.638
307.64
307.637
307.631
307.621
307.606
307.585
307.559
307.527
)
;

boundaryField
{
    left
    {
        type            fixedGradient;
        gradient        uniform 500;
    }
    right
    {
        type            uniformFixedValue;
        uniformValue    
        {
            type            sine;
            amplitude       
            {
                type            constant;
                value           20;
            }
            frequency       1.1574e-05;
            start           0;
            level           
            {
                type            constant;
                value           293;
            }
        }
        value           uniform 307.508;
    }
    frontAndBack
    {
        type            empty;
    }
    top_bottom
    {
        type            zeroGradient;
    }
}


// ************************************************************************* //
