/*--------------------------------*- C++ -*----------------------------------*\
  =========                 |
  \\      /  F ield         | OpenFOAM: The Open Source CFD Toolbox
   \\    /   O peration     | Website:  https://openfoam.org
    \\  /    A nd           | Version:  9
     \\/     M anipulation  |
\*---------------------------------------------------------------------------*/
FoamFile
{
    format      ascii;
    class       volScalarField;
    location    "43200";
    object      ddt0(T);
}
// * * * * * * * * * * * * * * * * * * * * * * * * * * * * * * * * * * * * * //

dimensions      [0 0 -1 1 0 0 0];

internalField   nonuniform List<scalar> 
100
(
0.00149102
0.00149035
0.001489
0.00148698
0.00148429
0.00148093
0.00147689
0.00147218
0.0014668
0.00146075
0.00145403
0.00144664
0.00143858
0.00142986
0.00142047
0.00141042
0.0013997
0.00138832
0.00137628
0.00136358
0.00135022
0.00133621
0.00132155
0.00130623
0.00129026
0.00127364
0.00125638
0.00123848
0.00121993
0.00120075
0.00118093
0.00116047
0.00113939
0.00111768
0.00109534
0.00107239
0.00104881
0.00102462
0.000999825
0.000974418
0.000948408
0.000921798
0.000894592
0.000866795
0.00083841
0.000809443
0.000779898
0.000749779
0.000719092
0.000687841
0.000656031
0.000623668
0.000590758
0.000557305
0.000523316
0.000488797
0.000453753
0.000418192
0.000382118
0.00034554
0.000308464
0.000270897
0.000232845
0.000194317
0.00015532
0.000115862
7.59508e-05
3.55943e-05
-5.19885e-06
-4.64201e-05
-8.80605e-05
-0.000130111
-0.000172563
-0.000215406
-0.000258631
-0.000302227
-0.000346185
-0.000390494
-0.000435143
-0.000480122
-0.000525419
-0.000571022
-0.00061692
-0.000663102
-0.000709553
-0.000756262
-0.000803217
-0.000850403
-0.000897807
-0.000945416
-0.000993215
-0.00104119
-0.00108933
-0.00113761
-0.00118602
-0.00123455
-0.00128318
-0.00133189
-0.00138067
-0.00142949
)
;

boundaryField
{
    left
    {
        type            calculated;
        value           uniform 0.00149102;
    }
    right
    {
        type            calculated;
        value           uniform -0.00145392;
    }
    frontAndBack
    {
        type            empty;
    }
    top_bottom
    {
        type            calculated;
        value           nonuniform List<scalar> 
200
(
0.00149102
0.00149035
0.001489
0.00148698
0.00148429
0.00148093
0.00147689
0.00147218
0.0014668
0.00146075
0.00145403
0.00144664
0.00143858
0.00142986
0.00142047
0.00141042
0.0013997
0.00138832
0.00137628
0.00136358
0.00135022
0.00133621
0.00132155
0.00130623
0.00129026
0.00127364
0.00125638
0.00123848
0.00121993
0.00120075
0.00118093
0.00116047
0.00113939
0.00111768
0.00109534
0.00107239
0.00104881
0.00102462
0.000999825
0.000974418
0.000948408
0.000921798
0.000894592
0.000866795
0.00083841
0.000809443
0.000779898
0.000749779
0.000719092
0.000687841
0.000656031
0.000623668
0.000590758
0.000557305
0.000523316
0.000488797
0.000453753
0.000418192
0.000382118
0.00034554
0.000308464
0.000270897
0.000232845
0.000194317
0.00015532
0.000115862
7.59508e-05
3.55943e-05
-5.19885e-06
-4.64201e-05
-8.80605e-05
-0.000130111
-0.000172563
-0.000215406
-0.000258631
-0.000302227
-0.000346185
-0.000390494
-0.000435143
-0.000480122
-0.000525419
-0.000571022
-0.00061692
-0.000663102
-0.000709553
-0.000756262
-0.000803217
-0.000850403
-0.000897807
-0.000945416
-0.000993215
-0.00104119
-0.00108933
-0.00113761
-0.00118602
-0.00123455
-0.00128318
-0.00133189
-0.00138067
-0.00142949
0.00149102
0.00149035
0.001489
0.00148698
0.00148429
0.00148093
0.00147689
0.00147218
0.0014668
0.00146075
0.00145403
0.00144664
0.00143858
0.00142986
0.00142047
0.00141042
0.0013997
0.00138832
0.00137628
0.00136358
0.00135022
0.00133621
0.00132155
0.00130623
0.00129026
0.00127364
0.00125638
0.00123848
0.00121993
0.00120075
0.00118093
0.00116047
0.00113939
0.00111768
0.00109534
0.00107239
0.00104881
0.00102462
0.000999825
0.000974418
0.000948408
0.000921798
0.000894592
0.000866795
0.00083841
0.000809443
0.000779898
0.000749779
0.000719092
0.000687841
0.000656031
0.000623668
0.000590758
0.000557305
0.000523316
0.000488797
0.000453753
0.000418192
0.000382118
0.00034554
0.000308464
0.000270897
0.000232845
0.000194317
0.00015532
0.000115862
7.59508e-05
3.55943e-05
-5.19885e-06
-4.64201e-05
-8.80605e-05
-0.000130111
-0.000172563
-0.000215406
-0.000258631
-0.000302227
-0.000346185
-0.000390494
-0.000435143
-0.000480122
-0.000525419
-0.000571022
-0.00061692
-0.000663102
-0.000709553
-0.000756262
-0.000803217
-0.000850403
-0.000897807
-0.000945416
-0.000993215
-0.00104119
-0.00108933
-0.00113761
-0.00118602
-0.00123455
-0.00128318
-0.00133189
-0.00138067
-0.00142949
)
;
    }
}


// ************************************************************************* //
