/*--------------------------------*- C++ -*----------------------------------*\
  =========                 |
  \\      /  F ield         | OpenFOAM: The Open Source CFD Toolbox
   \\    /   O peration     | Website:  https://openfoam.org
    \\  /    A nd           | Version:  9
     \\/     M anipulation  |
\*---------------------------------------------------------------------------*/
FoamFile
{
    format      ascii;
    class       volScalarField;
    location    "43200";
    object      gradTx;
}
// * * * * * * * * * * * * * * * * * * * * * * * * * * * * * * * * * * * * * //

dimensions      [0 -1 0 1 0 0 0];

internalField   nonuniform List<scalar> 
100
(
-497.49
-492.47
-487.454
-482.444
-477.441
-472.449
-467.47
-462.506
-457.559
-452.632
-447.726
-442.845
-437.99
-433.164
-428.369
-423.607
-418.881
-414.192
-409.544
-404.938
-400.377
-395.862
-391.397
-386.983
-382.622
-378.318
-374.071
-369.885
-365.761
-361.701
-357.708
-353.784
-349.932
-346.152
-342.448
-338.822
-335.275
-331.809
-328.428
-325.132
-321.925
-318.807
-315.781
-312.85
-310.014
-307.277
-304.639
-302.104
-299.673
-297.347
-295.129
-293.021
-291.024
-289.141
-287.373
-285.722
-284.19
-282.778
-281.489
-280.323
-279.284
-278.372
-277.588
-276.936
-276.416
-276.029
-275.778
-275.664
-275.688
-275.852
-276.158
-276.605
-277.197
-277.935
-278.818
-279.85
-281.031
-282.362
-283.844
-285.479
-287.267
-289.21
-291.309
-293.564
-295.977
-298.548
-301.278
-304.167
-307.218
-310.43
-313.803
-317.34
-321.039
-324.901
-328.928
-333.119
-337.474
-341.994
-346.68
-351.53
)
;

boundaryField
{
    left
    {
        type            calculated;
        value           uniform -500;
    }
    right
    {
        type            calculated;
        value           uniform -353.996;
    }
    frontAndBack
    {
        type            empty;
    }
    top_bottom
    {
        type            calculated;
        value           nonuniform List<scalar> 
200
(
-497.49
-492.47
-487.454
-482.444
-477.441
-472.449
-467.47
-462.506
-457.559
-452.632
-447.726
-442.845
-437.99
-433.164
-428.369
-423.607
-418.881
-414.192
-409.544
-404.938
-400.377
-395.862
-391.397
-386.983
-382.622
-378.318
-374.071
-369.885
-365.761
-361.701
-357.708
-353.784
-349.932
-346.152
-342.448
-338.822
-335.275
-331.809
-328.428
-325.132
-321.925
-318.807
-315.781
-312.85
-310.014
-307.277
-304.639
-302.104
-299.673
-297.347
-295.129
-293.021
-291.024
-289.141
-287.373
-285.722
-284.19
-282.778
-281.489
-280.323
-279.284
-278.372
-277.588
-276.936
-276.416
-276.029
-275.778
-275.664
-275.688
-275.852
-276.158
-276.605
-277.197
-277.935
-278.818
-279.85
-281.031
-282.362
-283.844
-285.479
-287.267
-289.21
-291.309
-293.564
-295.977
-298.548
-301.278
-304.167
-307.218
-310.43
-313.803
-317.34
-321.039
-324.901
-328.928
-333.119
-337.474
-341.994
-346.68
-351.53
-497.49
-492.47
-487.454
-482.444
-477.441
-472.449
-467.47
-462.506
-457.559
-452.632
-447.726
-442.845
-437.99
-433.164
-428.369
-423.607
-418.881
-414.192
-409.544
-404.938
-400.377
-395.862
-391.397
-386.983
-382.622
-378.318
-374.071
-369.885
-365.761
-361.701
-357.708
-353.784
-349.932
-346.152
-342.448
-338.822
-335.275
-331.809
-328.428
-325.132
-321.925
-318.807
-315.781
-312.85
-310.014
-307.277
-304.639
-302.104
-299.673
-297.347
-295.129
-293.021
-291.024
-289.141
-287.373
-285.722
-284.19
-282.778
-281.489
-280.323
-279.284
-278.372
-277.588
-276.936
-276.416
-276.029
-275.778
-275.664
-275.688
-275.852
-276.158
-276.605
-277.197
-277.935
-278.818
-279.85
-281.031
-282.362
-283.844
-285.479
-287.267
-289.21
-291.309
-293.564
-295.977
-298.548
-301.278
-304.167
-307.218
-310.43
-313.803
-317.34
-321.039
-324.901
-328.928
-333.119
-337.474
-341.994
-346.68
-351.53
)
;
    }
}


// ************************************************************************* //
