/*--------------------------------*- C++ -*----------------------------------*\
  =========                 |
  \\      /  F ield         | OpenFOAM: The Open Source CFD Toolbox
   \\    /   O peration     | Website:  https://openfoam.org
    \\  /    A nd           | Version:  9
     \\/     M anipulation  |
\*---------------------------------------------------------------------------*/
FoamFile
{
    format      ascii;
    class       volScalarField;
    location    "43200";
    object      T;
}
// * * * * * * * * * * * * * * * * * * * * * * * * * * * * * * * * * * * * * //

dimensions      [0 0 0 1 0 0 0];

internalField   nonuniform List<scalar> 
100
(
360.602
359.612
358.632
357.662
356.703
355.753
354.813
353.883
352.963
352.053
351.152
350.262
349.381
348.51
347.648
346.796
345.954
345.121
344.297
343.483
342.677
341.881
341.094
340.315
339.546
338.785
338.033
337.289
336.553
335.826
335.106
334.395
333.691
332.995
332.306
331.625
330.951
330.284
329.624
328.97
328.323
327.683
327.048
326.42
325.797
325.18
324.568
323.961
323.359
322.762
322.17
321.582
320.998
320.418
319.841
319.268
318.698
318.131
317.567
317.005
316.446
315.888
315.332
314.778
314.225
313.672
313.121
312.569
312.018
311.466
310.915
310.362
309.808
309.253
308.696
308.138
307.577
307.014
306.448
305.878
305.306
304.729
304.149
303.564
302.975
302.38
301.78
301.175
300.564
299.946
299.322
298.691
298.053
297.407
296.753
296.091
295.421
294.741
294.053
293.354
)
;

boundaryField
{
    left
    {
        type            fixedGradient;
        gradient        uniform 500;
    }
    right
    {
        type            uniformFixedValue;
        uniformValue    
        {
            type            sine;
            amplitude       
            {
                type            constant;
                value           20;
            }
            frequency       1.1574e-05;
            start           0;
            level           
            {
                type            constant;
                value           293;
            }
        }
        value           uniform 293;
    }
    frontAndBack
    {
        type            empty;
    }
    top_bottom
    {
        type            zeroGradient;
    }
}


// ************************************************************************* //
