/*--------------------------------*- C++ -*----------------------------------*\
  =========                 |
  \\      /  F ield         | OpenFOAM: The Open Source CFD Toolbox
   \\    /   O peration     | Website:  https://openfoam.org
    \\  /    A nd           | Version:  9
     \\/     M anipulation  |
\*---------------------------------------------------------------------------*/
FoamFile
{
    format      ascii;
    class       volScalarField;
    location    "43200";
    object      T_0;
}
// * * * * * * * * * * * * * * * * * * * * * * * * * * * * * * * * * * * * * //

dimensions      [0 0 0 1 0 0 0];

internalField   nonuniform List<scalar> 
100
(
360.073
359.083
358.104
357.135
356.176
355.227
354.288
353.36
352.442
351.534
350.636
349.748
348.87
348.002
347.144
346.296
345.457
344.628
343.809
342.999
342.198
341.407
340.625
339.852
339.088
338.334
337.587
336.85
336.121
335.4
334.688
333.984
333.288
332.6
331.919
331.246
330.58
329.922
329.271
328.626
327.989
327.357
326.733
326.114
325.501
324.895
324.293
323.697
323.107
322.521
321.94
321.363
320.791
320.223
319.659
319.098
318.541
317.986
317.435
316.887
316.34
315.796
315.254
314.713
314.174
313.636
313.098
312.561
312.024
311.488
310.951
310.413
309.874
309.335
308.794
308.25
307.705
307.158
306.608
306.055
305.498
304.938
304.374
303.806
303.233
302.655
302.072
301.483
300.889
300.288
299.681
299.067
298.446
297.818
297.181
296.536
295.883
295.221
294.55
293.869
)
;

boundaryField
{
    left
    {
        type            fixedGradient;
        gradient        uniform 500;
    }
    right
    {
        type            uniformFixedValue;
        uniformValue    
        {
            type            sine;
            amplitude       
            {
                type            constant;
                value           20;
            }
            frequency       1.1574e-05;
            start           0;
            level           
            {
                type            constant;
                value           293;
            }
        }
        value           uniform 293.524;
    }
    frontAndBack
    {
        type            empty;
    }
    top_bottom
    {
        type            zeroGradient;
    }
}


// ************************************************************************* //
