/*--------------------------------*- C++ -*----------------------------------*\
  =========                 |
  \\      /  F ield         | OpenFOAM: The Open Source CFD Toolbox
   \\    /   O peration     | Website:  https://openfoam.org
    \\  /    A nd           | Version:  9
     \\/     M anipulation  |
\*---------------------------------------------------------------------------*/
FoamFile
{
    format      ascii;
    class       volScalarField;
    location    "136800";
    object      ddt0(T);
}
// * * * * * * * * * * * * * * * * * * * * * * * * * * * * * * * * * * * * * //

dimensions      [0 0 -1 1 0 0 0];

internalField   nonuniform List<scalar> 
100
(
-0.000237282
-0.000237571
-0.00023815
-0.000239018
-0.000240174
-0.000241619
-0.000243353
-0.000245374
-0.000247683
-0.000250278
-0.000253159
-0.000256325
-0.000259776
-0.00026351
-0.000267526
-0.000271824
-0.000276402
-0.000281259
-0.000286394
-0.000291804
-0.00029749
-0.000303448
-0.000309678
-0.000316177
-0.000322944
-0.000329977
-0.000337273
-0.000344832
-0.000352649
-0.000360723
-0.000369052
-0.000377633
-0.000386463
-0.00039554
-0.00040486
-0.00041442
-0.000424219
-0.000434251
-0.000444514
-0.000455005
-0.00046572
-0.000476654
-0.000487805
-0.000499168
-0.000510739
-0.000522514
-0.000534489
-0.000546658
-0.000559018
-0.000571563
-0.000584288
-0.000597189
-0.000610259
-0.000623494
-0.000636888
-0.000650435
-0.000664129
-0.000677964
-0.000691933
-0.000706031
-0.000720249
-0.000734583
-0.000749024
-0.000763565
-0.000778199
-0.000792918
-0.000807715
-0.00082258
-0.000837507
-0.000852486
-0.000867509
-0.000882566
-0.00089765
-0.000912749
-0.000927855
-0.000942958
-0.000958048
-0.000973114
-0.000988146
-0.00100313
-0.00101806
-0.00103293
-0.00104771
-0.0010624
-0.00107699
-0.00109147
-0.00110582
-0.00112002
-0.00113407
-0.00114796
-0.00116166
-0.00117516
-0.00118846
-0.00120153
-0.00121436
-0.00122693
-0.00123924
-0.00125125
-0.00126297
-0.00127436
)
;

boundaryField
{
    left
    {
        type            calculated;
        value           uniform -0.000237282;
    }
    right
    {
        type            calculated;
        value           uniform -0.00127989;
    }
    frontAndBack
    {
        type            empty;
    }
    top_bottom
    {
        type            calculated;
        value           nonuniform List<scalar> 
200
(
-0.000237282
-0.000237571
-0.00023815
-0.000239018
-0.000240174
-0.000241619
-0.000243353
-0.000245374
-0.000247683
-0.000250278
-0.000253159
-0.000256325
-0.000259776
-0.00026351
-0.000267526
-0.000271824
-0.000276402
-0.000281259
-0.000286394
-0.000291804
-0.00029749
-0.000303448
-0.000309678
-0.000316177
-0.000322944
-0.000329977
-0.000337273
-0.000344832
-0.000352649
-0.000360723
-0.000369052
-0.000377633
-0.000386463
-0.00039554
-0.00040486
-0.00041442
-0.000424219
-0.000434251
-0.000444514
-0.000455005
-0.00046572
-0.000476654
-0.000487805
-0.000499168
-0.000510739
-0.000522514
-0.000534489
-0.000546658
-0.000559018
-0.000571563
-0.000584288
-0.000597189
-0.000610259
-0.000623494
-0.000636888
-0.000650435
-0.000664129
-0.000677964
-0.000691933
-0.000706031
-0.000720249
-0.000734583
-0.000749024
-0.000763565
-0.000778199
-0.000792918
-0.000807715
-0.00082258
-0.000837507
-0.000852486
-0.000867509
-0.000882566
-0.00089765
-0.000912749
-0.000927855
-0.000942958
-0.000958048
-0.000973114
-0.000988146
-0.00100313
-0.00101806
-0.00103293
-0.00104771
-0.0010624
-0.00107699
-0.00109147
-0.00110582
-0.00112002
-0.00113407
-0.00114796
-0.00116166
-0.00117516
-0.00118846
-0.00120153
-0.00121436
-0.00122693
-0.00123924
-0.00125125
-0.00126297
-0.00127436
-0.000237282
-0.000237571
-0.00023815
-0.000239018
-0.000240174
-0.000241619
-0.000243353
-0.000245374
-0.000247683
-0.000250278
-0.000253159
-0.000256325
-0.000259776
-0.00026351
-0.000267526
-0.000271824
-0.000276402
-0.000281259
-0.000286394
-0.000291804
-0.00029749
-0.000303448
-0.000309678
-0.000316177
-0.000322944
-0.000329977
-0.000337273
-0.000344832
-0.000352649
-0.000360723
-0.000369052
-0.000377633
-0.000386463
-0.00039554
-0.00040486
-0.00041442
-0.000424219
-0.000434251
-0.000444514
-0.000455005
-0.00046572
-0.000476654
-0.000487805
-0.000499168
-0.000510739
-0.000522514
-0.000534489
-0.000546658
-0.000559018
-0.000571563
-0.000584288
-0.000597189
-0.000610259
-0.000623494
-0.000636888
-0.000650435
-0.000664129
-0.000677964
-0.000691933
-0.000706031
-0.000720249
-0.000734583
-0.000749024
-0.000763565
-0.000778199
-0.000792918
-0.000807715
-0.00082258
-0.000837507
-0.000852486
-0.000867509
-0.000882566
-0.00089765
-0.000912749
-0.000927855
-0.000942958
-0.000958048
-0.000973114
-0.000988146
-0.00100313
-0.00101806
-0.00103293
-0.00104771
-0.0010624
-0.00107699
-0.00109147
-0.00110582
-0.00112002
-0.00113407
-0.00114796
-0.00116166
-0.00117516
-0.00118846
-0.00120153
-0.00121436
-0.00122693
-0.00123924
-0.00125125
-0.00126297
-0.00127436
)
;
    }
}


// ************************************************************************* //
