/*--------------------------------*- C++ -*----------------------------------*\
  =========                 |
  \\      /  F ield         | OpenFOAM: The Open Source CFD Toolbox
   \\    /   O peration     | Website:  https://openfoam.org
    \\  /    A nd           | Version:  9
     \\/     M anipulation  |
\*---------------------------------------------------------------------------*/
FoamFile
{
    format      ascii;
    class       volScalarField;
    location    "136800";
    object      gradTx;
}
// * * * * * * * * * * * * * * * * * * * * * * * * * * * * * * * * * * * * * //

dimensions      [0 -1 0 1 0 0 0];

internalField   nonuniform List<scalar> 
100
(
-500.435
-501.305
-502.177
-503.051
-503.929
-504.811
-505.699
-506.593
-507.494
-508.404
-509.323
-510.252
-511.192
-512.145
-513.111
-514.091
-515.086
-516.097
-517.125
-518.171
-519.236
-520.321
-521.426
-522.553
-523.702
-524.875
-526.072
-527.294
-528.543
-529.818
-531.122
-532.453
-533.815
-535.207
-536.63
-538.084
-539.572
-541.093
-542.649
-544.24
-545.867
-547.53
-549.231
-550.969
-552.747
-554.564
-556.421
-558.319
-560.258
-562.24
-564.263
-566.331
-568.442
-570.597
-572.797
-575.043
-577.334
-579.672
-582.057
-584.488
-586.968
-589.495
-592.07
-594.695
-597.368
-600.09
-602.862
-605.683
-608.554
-611.475
-614.447
-617.468
-620.54
-623.662
-626.835
-630.058
-633.33
-636.653
-640.026
-643.449
-646.921
-650.443
-654.014
-657.633
-661.3
-665.015
-668.778
-672.588
-676.443
-680.345
-684.291
-688.282
-692.317
-696.394
-700.513
-704.673
-708.873
-713.112
-717.389
-721.703
)
;

boundaryField
{
    left
    {
        type            calculated;
        value           uniform -500;
    }
    right
    {
        type            calculated;
        value           uniform -723.869;
    }
    frontAndBack
    {
        type            empty;
    }
    top_bottom
    {
        type            calculated;
        value           nonuniform List<scalar> 
200
(
-500.435
-501.305
-502.177
-503.051
-503.929
-504.811
-505.699
-506.593
-507.494
-508.404
-509.323
-510.252
-511.192
-512.145
-513.111
-514.091
-515.086
-516.097
-517.125
-518.171
-519.236
-520.321
-521.426
-522.553
-523.702
-524.875
-526.072
-527.294
-528.543
-529.818
-531.122
-532.453
-533.815
-535.207
-536.63
-538.084
-539.572
-541.093
-542.649
-544.24
-545.867
-547.53
-549.231
-550.969
-552.747
-554.564
-556.421
-558.319
-560.258
-562.24
-564.263
-566.331
-568.442
-570.597
-572.797
-575.043
-577.334
-579.672
-582.057
-584.488
-586.968
-589.495
-592.07
-594.695
-597.368
-600.09
-602.862
-605.683
-608.554
-611.475
-614.447
-617.468
-620.54
-623.662
-626.835
-630.058
-633.33
-636.653
-640.026
-643.449
-646.921
-650.443
-654.014
-657.633
-661.3
-665.015
-668.778
-672.588
-676.443
-680.345
-684.291
-688.282
-692.317
-696.394
-700.513
-704.673
-708.873
-713.112
-717.389
-721.703
-500.435
-501.305
-502.177
-503.051
-503.929
-504.811
-505.699
-506.593
-507.494
-508.404
-509.323
-510.252
-511.192
-512.145
-513.111
-514.091
-515.086
-516.097
-517.125
-518.171
-519.236
-520.321
-521.426
-522.553
-523.702
-524.875
-526.072
-527.294
-528.543
-529.818
-531.122
-532.453
-533.815
-535.207
-536.63
-538.084
-539.572
-541.093
-542.649
-544.24
-545.867
-547.53
-549.231
-550.969
-552.747
-554.564
-556.421
-558.319
-560.258
-562.24
-564.263
-566.331
-568.442
-570.597
-572.797
-575.043
-577.334
-579.672
-582.057
-584.488
-586.968
-589.495
-592.07
-594.695
-597.368
-600.09
-602.862
-605.683
-608.554
-611.475
-614.447
-617.468
-620.54
-623.662
-626.835
-630.058
-633.33
-636.653
-640.026
-643.449
-646.921
-650.443
-654.014
-657.633
-661.3
-665.015
-668.778
-672.588
-676.443
-680.345
-684.291
-688.282
-692.317
-696.394
-700.513
-704.673
-708.873
-713.112
-717.389
-721.703
)
;
    }
}


// ************************************************************************* //
