/*--------------------------------*- C++ -*----------------------------------*\
  =========                 |
  \\      /  F ield         | OpenFOAM: The Open Source CFD Toolbox
   \\    /   O peration     | Website:  https://openfoam.org
    \\  /    A nd           | Version:  9
     \\/     M anipulation  |
\*---------------------------------------------------------------------------*/
FoamFile
{
    format      ascii;
    class       volScalarField;
    location    "136800";
    object      T;
}
// * * * * * * * * * * * * * * * * * * * * * * * * * * * * * * * * * * * * * //

dimensions      [0 0 0 1 0 0 0];

internalField   nonuniform List<scalar> 
100
(
398.531
397.53
396.526
395.521
394.514
393.505
392.495
391.482
390.468
389.452
388.435
387.415
386.394
385.37
384.345
383.318
382.289
381.258
380.224
379.189
378.152
377.112
376.07
375.026
373.98
372.932
371.881
370.827
369.771
368.713
367.652
366.589
365.522
364.453
363.382
362.307
361.229
360.149
359.065
357.978
356.888
355.795
354.698
353.598
352.494
351.387
350.276
349.161
348.042
346.92
345.793
344.663
343.528
342.389
341.246
340.098
338.946
337.789
336.627
335.46
334.289
333.112
331.931
330.744
329.552
328.355
327.152
325.943
324.729
323.509
322.283
321.051
319.813
318.569
317.319
316.062
314.798
313.528
312.252
310.968
309.678
308.381
307.076
305.765
304.446
303.119
301.786
300.444
299.095
297.739
296.374
295.001
293.621
292.232
290.835
289.43
288.016
286.595
285.164
283.725
)
;

boundaryField
{
    left
    {
        type            fixedGradient;
        gradient        uniform 500;
    }
    right
    {
        type            uniformFixedValue;
        uniformValue    
        {
            type            sine;
            amplitude       
            {
                type            constant;
                value           20;
            }
            frequency       1.1574e-05;
            start           0;
            level           
            {
                type            constant;
                value           293;
            }
        }
        value           uniform 283.001;
    }
    frontAndBack
    {
        type            empty;
    }
    top_bottom
    {
        type            zeroGradient;
    }
}


// ************************************************************************* //
