/*--------------------------------*- C++ -*----------------------------------*\
  =========                 |
  \\      /  F ield         | OpenFOAM: The Open Source CFD Toolbox
   \\    /   O peration     | Website:  https://openfoam.org
    \\  /    A nd           | Version:  9
     \\/     M anipulation  |
\*---------------------------------------------------------------------------*/
FoamFile
{
    format      ascii;
    class       volScalarField;
    location    "136800";
    object      T_0;
}
// * * * * * * * * * * * * * * * * * * * * * * * * * * * * * * * * * * * * * //

dimensions      [0 0 0 1 0 0 0];

internalField   nonuniform List<scalar> 
100
(
398.62
397.618
396.615
395.61
394.604
393.595
392.585
391.574
390.561
389.546
388.529
387.511
386.49
385.468
384.444
383.419
382.391
381.362
380.33
379.297
378.262
377.224
376.185
375.143
374.099
373.053
372.005
370.954
369.901
368.846
367.788
366.727
365.664
364.598
363.53
362.459
361.385
360.307
359.227
358.144
357.058
355.968
354.876
353.78
352.68
351.577
350.47
349.36
348.246
347.128
346.006
344.88
343.75
342.615
341.477
340.334
339.186
338.034
336.877
335.716
334.549
333.378
332.202
331.02
329.833
328.641
327.443
326.24
325.031
323.816
322.596
321.369
320.137
318.898
317.653
316.401
315.143
313.878
312.607
311.329
310.044
308.752
307.452
306.146
304.832
303.511
302.182
300.846
299.502
298.15
296.79
295.422
294.046
292.662
291.269
289.869
288.459
287.042
285.615
284.18
)
;

boundaryField
{
    left
    {
        type            fixedGradient;
        gradient        uniform 500;
    }
    right
    {
        type            uniformFixedValue;
        uniformValue    
        {
            type            sine;
            amplitude       
            {
                type            constant;
                value           20;
            }
            frequency       1.1574e-05;
            start           0;
            level           
            {
                type            constant;
                value           293;
            }
        }
        value           uniform 283.458;
    }
    frontAndBack
    {
        type            empty;
    }
    top_bottom
    {
        type            zeroGradient;
    }
}


// ************************************************************************* //
