/*--------------------------------*- C++ -*----------------------------------*\
  =========                 |
  \\      /  F ield         | OpenFOAM: The Open Source CFD Toolbox
   \\    /   O peration     | Website:  https://openfoam.org
    \\  /    A nd           | Version:  9
     \\/     M anipulation  |
\*---------------------------------------------------------------------------*/
FoamFile
{
    format      ascii;
    class       volScalarField;
    location    "21600";
    object      ddt0(T);
}
// * * * * * * * * * * * * * * * * * * * * * * * * * * * * * * * * * * * * * //

dimensions      [0 0 -1 1 0 0 0];

internalField   nonuniform List<scalar> 
100
(
0.00378301
0.00378226
0.00378077
0.00377853
0.00377555
0.00377182
0.00376734
0.00376212
0.00375615
0.00374944
0.00374198
0.00373377
0.00372482
0.00371511
0.00370467
0.00369347
0.00368152
0.00366883
0.00365539
0.00364121
0.00362627
0.00361059
0.00359415
0.00357697
0.00355904
0.00354036
0.00352092
0.00350074
0.00347981
0.00345813
0.0034357
0.00341251
0.00338858
0.00336389
0.00333845
0.00331226
0.00328532
0.00325763
0.00322918
0.00319999
0.00317004
0.00313934
0.00310788
0.00307567
0.00304271
0.003009
0.00297454
0.00293932
0.00290335
0.00286663
0.00282916
0.00279093
0.00275195
0.00271222
0.00267174
0.00263051
0.00258852
0.00254579
0.0025023
0.00245806
0.00241308
0.00236734
0.00232086
0.00227362
0.00222564
0.00217691
0.00212743
0.0020772
0.00202623
0.00197451
0.00192205
0.00186884
0.00181488
0.00176019
0.00170474
0.00164856
0.00159163
0.00153396
0.00147555
0.0014164
0.00135651
0.00129588
0.00123451
0.0011724
0.00110956
0.00104597
0.000981655
0.0009166
0.000850809
0.000784284
0.000717025
0.000649032
0.000580306
0.000510847
0.000440656
0.000369733
0.000298079
0.000225694
0.00015258
7.87349e-05
)
;

boundaryField
{
    left
    {
        type            calculated;
        value           uniform 0.00378301;
    }
    right
    {
        type            calculated;
        value           uniform 4.14478e-05;
    }
    frontAndBack
    {
        type            empty;
    }
    top_bottom
    {
        type            calculated;
        value           nonuniform List<scalar> 
200
(
0.00378301
0.00378226
0.00378077
0.00377853
0.00377555
0.00377182
0.00376734
0.00376212
0.00375615
0.00374944
0.00374198
0.00373377
0.00372482
0.00371511
0.00370467
0.00369347
0.00368152
0.00366883
0.00365539
0.00364121
0.00362627
0.00361059
0.00359415
0.00357697
0.00355904
0.00354036
0.00352092
0.00350074
0.00347981
0.00345813
0.0034357
0.00341251
0.00338858
0.00336389
0.00333845
0.00331226
0.00328532
0.00325763
0.00322918
0.00319999
0.00317004
0.00313934
0.00310788
0.00307567
0.00304271
0.003009
0.00297454
0.00293932
0.00290335
0.00286663
0.00282916
0.00279093
0.00275195
0.00271222
0.00267174
0.00263051
0.00258852
0.00254579
0.0025023
0.00245806
0.00241308
0.00236734
0.00232086
0.00227362
0.00222564
0.00217691
0.00212743
0.0020772
0.00202623
0.00197451
0.00192205
0.00186884
0.00181488
0.00176019
0.00170474
0.00164856
0.00159163
0.00153396
0.00147555
0.0014164
0.00135651
0.00129588
0.00123451
0.0011724
0.00110956
0.00104597
0.000981655
0.0009166
0.000850809
0.000784284
0.000717025
0.000649032
0.000580306
0.000510847
0.000440656
0.000369733
0.000298079
0.000225694
0.00015258
7.87349e-05
0.00378301
0.00378226
0.00378077
0.00377853
0.00377555
0.00377182
0.00376734
0.00376212
0.00375615
0.00374944
0.00374198
0.00373377
0.00372482
0.00371511
0.00370467
0.00369347
0.00368152
0.00366883
0.00365539
0.00364121
0.00362627
0.00361059
0.00359415
0.00357697
0.00355904
0.00354036
0.00352092
0.00350074
0.00347981
0.00345813
0.0034357
0.00341251
0.00338858
0.00336389
0.00333845
0.00331226
0.00328532
0.00325763
0.00322918
0.00319999
0.00317004
0.00313934
0.00310788
0.00307567
0.00304271
0.003009
0.00297454
0.00293932
0.00290335
0.00286663
0.00282916
0.00279093
0.00275195
0.00271222
0.00267174
0.00263051
0.00258852
0.00254579
0.0025023
0.00245806
0.00241308
0.00236734
0.00232086
0.00227362
0.00222564
0.00217691
0.00212743
0.0020772
0.00202623
0.00197451
0.00192205
0.00186884
0.00181488
0.00176019
0.00170474
0.00164856
0.00159163
0.00153396
0.00147555
0.0014164
0.00135651
0.00129588
0.00123451
0.0011724
0.00110956
0.00104597
0.000981655
0.0009166
0.000850809
0.000784284
0.000717025
0.000649032
0.000580306
0.000510847
0.000440656
0.000369733
0.000298079
0.000225694
0.00015258
7.87349e-05
)
;
    }
}


// ************************************************************************* //
