/*--------------------------------*- C++ -*----------------------------------*\
  =========                 |
  \\      /  F ield         | OpenFOAM: The Open Source CFD Toolbox
   \\    /   O peration     | Website:  https://openfoam.org
    \\  /    A nd           | Version:  9
     \\/     M anipulation  |
\*---------------------------------------------------------------------------*/
FoamFile
{
    format      ascii;
    class       volScalarField;
    location    "21600";
    object      gradTx;
}
// * * * * * * * * * * * * * * * * * * * * * * * * * * * * * * * * * * * * * //

dimensions      [0 -1 0 1 0 0 0];

internalField   nonuniform List<scalar> 
100
(
-493.545
-480.635
-467.73
-454.831
-441.941
-429.063
-416.199
-403.351
-390.523
-377.717
-364.935
-352.18
-339.455
-326.762
-314.104
-301.483
-288.902
-276.364
-263.871
-251.425
-239.03
-226.687
-214.4
-202.171
-190.002
-177.897
-165.857
-153.886
-141.986
-130.159
-118.408
-106.736
-95.1449
-83.6379
-72.2174
-60.8859
-49.646
-38.5003
-27.4515
-16.502
-5.65453
5.08836
15.7241
26.25
36.6636
46.9623
57.1434
67.2043
77.1426
86.9555
96.6406
106.195
115.617
124.902
134.05
143.057
151.92
160.637
169.206
177.623
185.887
193.994
201.942
209.729
217.352
224.808
232.095
239.21
246.15
252.914
259.498
265.9
272.117
278.148
283.988
289.636
295.089
300.344
305.4
310.253
314.9
319.34
323.57
327.587
331.389
334.973
338.336
341.476
344.391
347.078
349.534
351.758
353.745
355.495
357.003
358.269
359.289
360.06
360.581
360.848
)
;

boundaryField
{
    left
    {
        type            calculated;
        value           uniform -500;
    }
    right
    {
        type            calculated;
        value           uniform 360.918;
    }
    frontAndBack
    {
        type            empty;
    }
    top_bottom
    {
        type            calculated;
        value           nonuniform List<scalar> 
200
(
-493.545
-480.635
-467.73
-454.831
-441.941
-429.063
-416.199
-403.351
-390.523
-377.717
-364.935
-352.18
-339.455
-326.762
-314.104
-301.483
-288.902
-276.364
-263.871
-251.425
-239.03
-226.687
-214.4
-202.171
-190.002
-177.897
-165.857
-153.886
-141.986
-130.159
-118.408
-106.736
-95.1449
-83.6379
-72.2174
-60.8859
-49.646
-38.5003
-27.4515
-16.502
-5.65453
5.08836
15.7241
26.25
36.6636
46.9623
57.1434
67.2043
77.1426
86.9555
96.6406
106.195
115.617
124.902
134.05
143.057
151.92
160.637
169.206
177.623
185.887
193.994
201.942
209.729
217.352
224.808
232.095
239.21
246.15
252.914
259.498
265.9
272.117
278.148
283.988
289.636
295.089
300.344
305.4
310.253
314.9
319.34
323.57
327.587
331.389
334.973
338.336
341.476
344.391
347.078
349.534
351.758
353.745
355.495
357.003
358.269
359.289
360.06
360.581
360.848
-493.545
-480.635
-467.73
-454.831
-441.941
-429.063
-416.199
-403.351
-390.523
-377.717
-364.935
-352.18
-339.455
-326.762
-314.104
-301.483
-288.902
-276.364
-263.871
-251.425
-239.03
-226.687
-214.4
-202.171
-190.002
-177.897
-165.857
-153.886
-141.986
-130.159
-118.408
-106.736
-95.1449
-83.6379
-72.2174
-60.8859
-49.646
-38.5003
-27.4515
-16.502
-5.65453
5.08836
15.7241
26.25
36.6636
46.9623
57.1434
67.2043
77.1426
86.9555
96.6406
106.195
115.617
124.902
134.05
143.057
151.92
160.637
169.206
177.623
185.887
193.994
201.942
209.729
217.352
224.808
232.095
239.21
246.15
252.914
259.498
265.9
272.117
278.148
283.988
289.636
295.089
300.344
305.4
310.253
314.9
319.34
323.57
327.587
331.389
334.973
338.336
341.476
344.391
347.078
349.534
351.758
353.745
355.495
357.003
358.269
359.289
360.06
360.581
360.848
)
;
    }
}


// ************************************************************************* //
