/*--------------------------------*- C++ -*----------------------------------*\
  =========                 |
  \\      /  F ield         | OpenFOAM: The Open Source CFD Toolbox
   \\    /   O peration     | Website:  https://openfoam.org
    \\  /    A nd           | Version:  9
     \\/     M anipulation  |
\*---------------------------------------------------------------------------*/
FoamFile
{
    format      ascii;
    class       volScalarField;
    location    "21600";
    object      T;
}
// * * * * * * * * * * * * * * * * * * * * * * * * * * * * * * * * * * * * * //

dimensions      [0 0 0 1 0 0 0];

internalField   nonuniform List<scalar> 
100
(
304.898
303.923
302.975
302.053
301.156
300.285
299.44
298.62
297.826
297.058
296.315
295.598
294.907
294.24
293.599
292.984
292.394
291.828
291.288
290.773
290.282
289.817
289.376
288.959
288.567
288.199
287.855
287.536
287.24
286.968
286.719
286.494
286.292
286.114
285.958
285.825
285.714
285.626
285.56
285.516
285.494
285.494
285.514
285.557
285.619
285.703
285.807
285.932
286.076
286.24
286.424
286.627
286.849
287.089
287.348
287.626
287.921
288.233
288.563
288.91
289.274
289.654
290.05
290.461
290.889
291.331
291.788
292.259
292.745
293.244
293.756
294.282
294.82
295.37
295.932
296.506
297.091
297.687
298.292
298.908
299.533
300.168
300.811
301.462
302.121
302.788
303.461
304.141
304.827
305.518
306.215
306.917
307.622
308.332
309.044
309.76
310.477
311.197
311.918
312.639
)
;

boundaryField
{
    left
    {
        type            fixedGradient;
        gradient        uniform 500;
    }
    right
    {
        type            uniformFixedValue;
        uniformValue    
        {
            type            sine;
            amplitude       
            {
                type            constant;
                value           20;
            }
            frequency       1.1574e-05;
            start           0;
            level           
            {
                type            constant;
                value           293;
            }
        }
        value           uniform 313;
    }
    frontAndBack
    {
        type            empty;
    }
    top_bottom
    {
        type            zeroGradient;
    }
}


// ************************************************************************* //
