/*--------------------------------*- C++ -*----------------------------------*\
  =========                 |
  \\      /  F ield         | OpenFOAM: The Open Source CFD Toolbox
   \\    /   O peration     | Website:  https://openfoam.org
    \\  /    A nd           | Version:  9
     \\/     M anipulation  |
\*---------------------------------------------------------------------------*/
FoamFile
{
    format      ascii;
    class       volScalarField;
    location    "21600";
    object      T_0;
}
// * * * * * * * * * * * * * * * * * * * * * * * * * * * * * * * * * * * * * //

dimensions      [0 0 0 1 0 0 0];

internalField   nonuniform List<scalar> 
100
(
303.544
302.57
301.622
300.701
299.805
298.935
298.092
297.274
296.482
295.716
294.976
294.262
293.574
292.911
292.274
291.663
291.076
290.516
289.98
289.47
288.985
288.525
288.09
287.68
287.294
286.933
286.596
286.284
285.995
285.731
285.491
285.274
285.081
284.911
284.764
284.641
284.54
284.462
284.406
284.373
284.361
284.372
284.404
284.458
284.532
284.628
284.745
284.882
285.039
285.217
285.414
285.63
285.866
286.121
286.395
286.687
286.997
287.325
287.671
288.033
288.413
288.81
289.222
289.651
290.096
290.555
291.03
291.52
292.023
292.541
293.073
293.617
294.175
294.745
295.327
295.921
296.526
297.142
297.769
298.406
299.053
299.709
300.374
301.048
301.73
302.419
303.116
303.819
304.529
305.244
305.965
306.691
307.421
308.156
308.894
309.635
310.378
311.124
311.871
312.619
)
;

boundaryField
{
    left
    {
        type            fixedGradient;
        gradient        uniform 500;
    }
    right
    {
        type            uniformFixedValue;
        uniformValue    
        {
            type            sine;
            amplitude       
            {
                type            constant;
                value           20;
            }
            frequency       1.1574e-05;
            start           0;
            level           
            {
                type            constant;
                value           293;
            }
        }
        value           uniform 312.993;
    }
    frontAndBack
    {
        type            empty;
    }
    top_bottom
    {
        type            zeroGradient;
    }
}


// ************************************************************************* //
