/*--------------------------------*- C++ -*----------------------------------*\
  =========                 |
  \\      /  F ield         | OpenFOAM: The Open Source CFD Toolbox
   \\    /   O peration     | Website:  https://openfoam.org
    \\  /    A nd           | Version:  9
     \\/     M anipulation  |
\*---------------------------------------------------------------------------*/
FoamFile
{
    format      ascii;
    class       volScalarField;
    location    "64800";
    object      ddt0(T);
}
// * * * * * * * * * * * * * * * * * * * * * * * * * * * * * * * * * * * * * //

dimensions      [0 0 -1 1 0 0 0];

internalField   nonuniform List<scalar> 
100
(
5.59276e-05
5.57471e-05
5.53863e-05
5.48457e-05
5.41258e-05
5.32274e-05
5.21514e-05
5.08992e-05
4.9472e-05
4.78714e-05
4.60993e-05
4.41575e-05
4.20483e-05
3.97741e-05
3.73373e-05
3.47408e-05
3.19875e-05
2.90806e-05
2.60234e-05
2.28194e-05
1.94725e-05
1.59866e-05
1.23658e-05
8.61436e-06
4.73691e-06
7.38154e-07
-3.377e-06
-7.60343e-06
-1.19358e-05
-1.63687e-05
-2.08964e-05
-2.55129e-05
-3.02122e-05
-3.49881e-05
-3.9834e-05
-4.47433e-05
-4.97091e-05
-5.47245e-05
-5.97821e-05
-6.48745e-05
-6.99942e-05
-7.51333e-05
-8.02838e-05
-8.54376e-05
-9.05863e-05
-9.57213e-05
-0.000100834
-0.000105915
-0.000110956
-0.000115947
-0.000120879
-0.000125743
-0.000130527
-0.000135223
-0.00013982
-0.000144308
-0.000148676
-0.000152914
-0.00015701
-0.000160955
-0.000164735
-0.000168341
-0.00017176
-0.000174981
-0.000177992
-0.00018078
-0.000183335
-0.000185642
-0.000187691
-0.000189468
-0.00019096
-0.000192155
-0.000193039
-0.000193599
-0.000193823
-0.000193695
-0.000193203
-0.000192333
-0.000191071
-0.000189403
-0.000187315
-0.000184792
-0.000181821
-0.000178386
-0.000174474
-0.000170069
-0.000165157
-0.000159723
-0.000153752
-0.000147229
-0.000140139
-0.000132466
-0.000124196
-0.000115313
-0.000105802
-9.56469e-05
-8.48327e-05
-7.33439e-05
-6.11649e-05
-4.82802e-05
)
;

boundaryField
{
    left
    {
        type            calculated;
        value           uniform 5.59276e-05;
    }
    right
    {
        type            calculated;
        value           uniform -4.14771e-05;
    }
    frontAndBack
    {
        type            empty;
    }
    top_bottom
    {
        type            calculated;
        value           nonuniform List<scalar> 
200
(
5.59276e-05
5.57471e-05
5.53863e-05
5.48457e-05
5.41258e-05
5.32274e-05
5.21514e-05
5.08992e-05
4.9472e-05
4.78714e-05
4.60993e-05
4.41575e-05
4.20483e-05
3.97741e-05
3.73373e-05
3.47408e-05
3.19875e-05
2.90806e-05
2.60234e-05
2.28194e-05
1.94725e-05
1.59866e-05
1.23658e-05
8.61436e-06
4.73691e-06
7.38154e-07
-3.377e-06
-7.60343e-06
-1.19358e-05
-1.63687e-05
-2.08964e-05
-2.55129e-05
-3.02122e-05
-3.49881e-05
-3.9834e-05
-4.47433e-05
-4.97091e-05
-5.47245e-05
-5.97821e-05
-6.48745e-05
-6.99942e-05
-7.51333e-05
-8.02838e-05
-8.54376e-05
-9.05863e-05
-9.57213e-05
-0.000100834
-0.000105915
-0.000110956
-0.000115947
-0.000120879
-0.000125743
-0.000130527
-0.000135223
-0.00013982
-0.000144308
-0.000148676
-0.000152914
-0.00015701
-0.000160955
-0.000164735
-0.000168341
-0.00017176
-0.000174981
-0.000177992
-0.00018078
-0.000183335
-0.000185642
-0.000187691
-0.000189468
-0.00019096
-0.000192155
-0.000193039
-0.000193599
-0.000193823
-0.000193695
-0.000193203
-0.000192333
-0.000191071
-0.000189403
-0.000187315
-0.000184792
-0.000181821
-0.000178386
-0.000174474
-0.000170069
-0.000165157
-0.000159723
-0.000153752
-0.000147229
-0.000140139
-0.000132466
-0.000124196
-0.000115313
-0.000105802
-9.56469e-05
-8.48327e-05
-7.33439e-05
-6.11649e-05
-4.82802e-05
5.59276e-05
5.57471e-05
5.53863e-05
5.48457e-05
5.41258e-05
5.32274e-05
5.21514e-05
5.08992e-05
4.9472e-05
4.78714e-05
4.60993e-05
4.41575e-05
4.20483e-05
3.97741e-05
3.73373e-05
3.47408e-05
3.19875e-05
2.90806e-05
2.60234e-05
2.28194e-05
1.94725e-05
1.59866e-05
1.23658e-05
8.61436e-06
4.73691e-06
7.38154e-07
-3.377e-06
-7.60343e-06
-1.19358e-05
-1.63687e-05
-2.08964e-05
-2.55129e-05
-3.02122e-05
-3.49881e-05
-3.9834e-05
-4.47433e-05
-4.97091e-05
-5.47245e-05
-5.97821e-05
-6.48745e-05
-6.99942e-05
-7.51333e-05
-8.02838e-05
-8.54376e-05
-9.05863e-05
-9.57213e-05
-0.000100834
-0.000105915
-0.000110956
-0.000115947
-0.000120879
-0.000125743
-0.000130527
-0.000135223
-0.00013982
-0.000144308
-0.000148676
-0.000152914
-0.00015701
-0.000160955
-0.000164735
-0.000168341
-0.00017176
-0.000174981
-0.000177992
-0.00018078
-0.000183335
-0.000185642
-0.000187691
-0.000189468
-0.00019096
-0.000192155
-0.000193039
-0.000193599
-0.000193823
-0.000193695
-0.000193203
-0.000192333
-0.000191071
-0.000189403
-0.000187315
-0.000184792
-0.000181821
-0.000178386
-0.000174474
-0.000170069
-0.000165157
-0.000159723
-0.000153752
-0.000147229
-0.000140139
-0.000132466
-0.000124196
-0.000115313
-0.000105802
-9.56469e-05
-8.48327e-05
-7.33439e-05
-6.11649e-05
-4.82802e-05
)
;
    }
}


// ************************************************************************* //
