/*--------------------------------*- C++ -*----------------------------------*\
  =========                 |
  \\      /  F ield         | OpenFOAM: The Open Source CFD Toolbox
   \\    /   O peration     | Website:  https://openfoam.org
    \\  /    A nd           | Version:  9
     \\/     M anipulation  |
\*---------------------------------------------------------------------------*/
FoamFile
{
    format      ascii;
    class       volScalarField;
    location    "64800";
    object      gradTx;
}
// * * * * * * * * * * * * * * * * * * * * * * * * * * * * * * * * * * * * * //

dimensions      [0 -1 0 1 0 0 0];

internalField   nonuniform List<scalar> 
100
(
-499.919
-499.758
-499.598
-499.439
-499.282
-499.128
-498.977
-498.83
-498.687
-498.549
-498.417
-498.291
-498.171
-498.058
-497.953
-497.856
-497.768
-497.689
-497.62
-497.56
-497.512
-497.474
-497.448
-497.434
-497.432
-497.443
-497.467
-497.504
-497.556
-497.621
-497.701
-497.795
-497.904
-498.029
-498.169
-498.324
-498.496
-498.683
-498.886
-499.106
-499.342
-499.594
-499.862
-500.146
-500.447
-500.764
-501.097
-501.446
-501.811
-502.191
-502.587
-502.998
-503.424
-503.864
-504.319
-504.787
-505.269
-505.763
-506.27
-506.789
-507.319
-507.86
-508.411
-508.971
-509.54
-510.117
-510.701
-511.29
-511.885
-512.485
-513.088
-513.693
-514.299
-514.905
-515.511
-516.114
-516.713
-517.308
-517.897
-518.478
-519.05
-519.611
-520.161
-520.696
-521.217
-521.72
-522.205
-522.67
-523.112
-523.53
-523.921
-524.285
-524.618
-524.919
-525.185
-525.415
-525.606
-525.756
-525.862
-525.922
)
;

boundaryField
{
    left
    {
        type            calculated;
        value           uniform -500;
    }
    right
    {
        type            calculated;
        value           uniform -525.941;
    }
    frontAndBack
    {
        type            empty;
    }
    top_bottom
    {
        type            calculated;
        value           nonuniform List<scalar> 
200
(
-499.919
-499.758
-499.598
-499.439
-499.282
-499.128
-498.977
-498.83
-498.687
-498.549
-498.417
-498.291
-498.171
-498.058
-497.953
-497.856
-497.768
-497.689
-497.62
-497.56
-497.512
-497.474
-497.448
-497.434
-497.432
-497.443
-497.467
-497.504
-497.556
-497.621
-497.701
-497.795
-497.904
-498.029
-498.169
-498.324
-498.496
-498.683
-498.886
-499.106
-499.342
-499.594
-499.862
-500.146
-500.447
-500.764
-501.097
-501.446
-501.811
-502.191
-502.587
-502.998
-503.424
-503.864
-504.319
-504.787
-505.269
-505.763
-506.27
-506.789
-507.319
-507.86
-508.411
-508.971
-509.54
-510.117
-510.701
-511.29
-511.885
-512.485
-513.088
-513.693
-514.299
-514.905
-515.511
-516.114
-516.713
-517.308
-517.897
-518.478
-519.05
-519.611
-520.161
-520.696
-521.217
-521.72
-522.205
-522.67
-523.112
-523.53
-523.921
-524.285
-524.618
-524.919
-525.185
-525.415
-525.606
-525.756
-525.862
-525.922
-499.919
-499.758
-499.598
-499.439
-499.282
-499.128
-498.977
-498.83
-498.687
-498.549
-498.417
-498.291
-498.171
-498.058
-497.953
-497.856
-497.768
-497.689
-497.62
-497.56
-497.512
-497.474
-497.448
-497.434
-497.432
-497.443
-497.467
-497.504
-497.556
-497.621
-497.701
-497.795
-497.904
-498.029
-498.169
-498.324
-498.496
-498.683
-498.886
-499.106
-499.342
-499.594
-499.862
-500.146
-500.447
-500.764
-501.097
-501.446
-501.811
-502.191
-502.587
-502.998
-503.424
-503.864
-504.319
-504.787
-505.269
-505.763
-506.27
-506.789
-507.319
-507.86
-508.411
-508.971
-509.54
-510.117
-510.701
-511.29
-511.885
-512.485
-513.088
-513.693
-514.299
-514.905
-515.511
-516.114
-516.713
-517.308
-517.897
-518.478
-519.05
-519.611
-520.161
-520.696
-521.217
-521.72
-522.205
-522.67
-523.112
-523.53
-523.921
-524.285
-524.618
-524.919
-525.185
-525.415
-525.606
-525.756
-525.862
-525.922
)
;
    }
}


// ************************************************************************* //
