/*--------------------------------*- C++ -*----------------------------------*\
  =========                 |
  \\      /  F ield         | OpenFOAM: The Open Source CFD Toolbox
   \\    /   O peration     | Website:  https://openfoam.org
    \\  /    A nd           | Version:  9
     \\/     M anipulation  |
\*---------------------------------------------------------------------------*/
FoamFile
{
    format      ascii;
    class       volScalarField;
    location    "64800";
    object      T;
}
// * * * * * * * * * * * * * * * * * * * * * * * * * * * * * * * * * * * * * //

dimensions      [0 0 0 1 0 0 0];

internalField   nonuniform List<scalar> 
100
(
373.909
372.909
371.91
370.911
369.912
368.914
367.915
366.918
365.92
364.923
363.926
362.929
361.933
360.937
359.94
358.945
357.949
356.954
355.958
354.963
353.968
352.973
351.978
350.983
349.988
348.994
347.999
347.004
346.009
345.013
344.018
343.023
342.027
341.031
340.035
339.038
338.042
337.044
336.047
335.049
334.05
333.051
332.052
331.052
330.051
329.05
328.048
327.046
326.043
325.039
324.034
323.028
322.022
321.015
320.006
318.997
317.987
316.976
315.964
314.951
313.937
312.922
311.906
310.888
309.87
308.85
307.829
306.807
305.784
304.76
303.734
302.707
301.679
300.65
299.62
298.588
297.555
296.521
295.486
294.45
293.412
292.373
291.334
290.293
289.251
288.208
287.164
286.119
285.073
284.027
282.979
281.931
280.882
279.833
278.782
277.732
276.681
275.629
274.578
273.526
)
;

boundaryField
{
    left
    {
        type            fixedGradient;
        gradient        uniform 500;
    }
    right
    {
        type            uniformFixedValue;
        uniformValue    
        {
            type            sine;
            amplitude       
            {
                type            constant;
                value           20;
            }
            frequency       1.1574e-05;
            start           0;
            level           
            {
                type            constant;
                value           293;
            }
        }
        value           uniform 273;
    }
    frontAndBack
    {
        type            empty;
    }
    top_bottom
    {
        type            zeroGradient;
    }
}


// ************************************************************************* //
