/*--------------------------------*- C++ -*----------------------------------*\
  =========                 |
  \\      /  F ield         | OpenFOAM: The Open Source CFD Toolbox
   \\    /   O peration     | Website:  https://openfoam.org
    \\  /    A nd           | Version:  9
     \\/     M anipulation  |
\*---------------------------------------------------------------------------*/
FoamFile
{
    format      ascii;
    class       volScalarField;
    location    "64800";
    object      T_0;
}
// * * * * * * * * * * * * * * * * * * * * * * * * * * * * * * * * * * * * * //

dimensions      [0 0 0 1 0 0 0];

internalField   nonuniform List<scalar> 
100
(
373.891
372.891
371.892
370.893
369.894
368.896
367.899
366.901
365.904
364.907
363.911
362.915
361.919
360.924
359.929
358.934
357.939
356.945
355.95
354.956
353.963
352.969
351.975
350.982
349.988
348.995
348.001
347.008
346.014
345.02
344.027
343.033
342.039
341.044
340.05
339.055
338.06
337.065
336.069
335.072
334.076
333.079
332.081
331.083
330.084
329.084
328.084
327.083
326.082
325.08
324.077
323.073
322.068
321.062
320.055
319.048
318.039
317.03
316.019
315.007
313.994
312.98
311.965
310.949
309.931
308.912
307.892
306.871
305.849
304.825
303.8
302.773
301.745
300.716
299.686
298.654
297.621
296.586
295.55
294.513
293.475
292.435
291.394
290.352
289.308
288.264
287.218
286.171
285.123
284.073
283.023
281.972
280.92
279.867
278.813
277.759
276.704
275.648
274.592
273.535
)
;

boundaryField
{
    left
    {
        type            fixedGradient;
        gradient        uniform 500;
    }
    right
    {
        type            uniformFixedValue;
        uniformValue    
        {
            type            sine;
            amplitude       
            {
                type            constant;
                value           20;
            }
            frequency       1.1574e-05;
            start           0;
            level           
            {
                type            constant;
                value           293;
            }
        }
        value           uniform 273.007;
    }
    frontAndBack
    {
        type            empty;
    }
    top_bottom
    {
        type            zeroGradient;
    }
}


// ************************************************************************* //
