/*--------------------------------*- C++ -*----------------------------------*\
  =========                 |
  \\      /  F ield         | OpenFOAM: The Open Source CFD Toolbox
   \\    /   O peration     | Website:  https://openfoam.org
    \\  /    A nd           | Version:  9
     \\/     M anipulation  |
\*---------------------------------------------------------------------------*/
FoamFile
{
    format      ascii;
    class       volScalarField;
    location    "75600";
    object      ddt0(T);
}
// * * * * * * * * * * * * * * * * * * * * * * * * * * * * * * * * * * * * * //

dimensions      [0 0 -1 1 0 0 0];

internalField   nonuniform List<scalar> 
100
(
3.27622e-06
3.37357e-06
3.56841e-06
3.86103e-06
4.25186e-06
4.74148e-06
5.3306e-06
6.02007e-06
6.81091e-06
7.70425e-06
8.70139e-06
9.80373e-06
1.10129e-05
1.23305e-05
1.37584e-05
1.52987e-05
1.69534e-05
1.87247e-05
2.06152e-05
2.26273e-05
2.47636e-05
2.7027e-05
2.94203e-05
3.19467e-05
3.46093e-05
3.74114e-05
4.03565e-05
4.3448e-05
4.66898e-05
5.00855e-05
5.36391e-05
5.73546e-05
6.12362e-05
6.52881e-05
6.95147e-05
7.39205e-05
7.85101e-05
8.32881e-05
8.82594e-05
9.34288e-05
9.88013e-05
0.000104382
0.000110176
0.000116189
0.000122426
0.000128892
0.000135593
0.000142535
0.000149723
0.000157162
0.00016486
0.000172821
0.000181052
0.000189558
0.000198345
0.000207421
0.00021679
0.000226458
0.000236433
0.000246721
0.000257327
0.000268258
0.00027952
0.00029112
0.000303063
0.000315357
0.000328008
0.000341021
0.000354404
0.000368162
0.000382302
0.00039683
0.000411753
0.000427076
0.000442806
0.000458949
0.000475511
0.000492498
0.000509915
0.00052777
0.000546066
0.000564811
0.00058401
0.000603668
0.000623791
0.000644384
0.000665452
0.000687
0.000709034
0.000731557
0.000754574
0.00077809
0.00080211
0.000826637
0.000851675
0.000877227
0.000903298
0.000929891
0.000957009
0.000984654
)
;

boundaryField
{
    left
    {
        type            calculated;
        value           uniform 3.27622e-06;
    }
    right
    {
        type            calculated;
        value           uniform 0.000998742;
    }
    frontAndBack
    {
        type            empty;
    }
    top_bottom
    {
        type            calculated;
        value           nonuniform List<scalar> 
200
(
3.27622e-06
3.37357e-06
3.56841e-06
3.86103e-06
4.25186e-06
4.74148e-06
5.3306e-06
6.02007e-06
6.81091e-06
7.70425e-06
8.70139e-06
9.80373e-06
1.10129e-05
1.23305e-05
1.37584e-05
1.52987e-05
1.69534e-05
1.87247e-05
2.06152e-05
2.26273e-05
2.47636e-05
2.7027e-05
2.94203e-05
3.19467e-05
3.46093e-05
3.74114e-05
4.03565e-05
4.3448e-05
4.66898e-05
5.00855e-05
5.36391e-05
5.73546e-05
6.12362e-05
6.52881e-05
6.95147e-05
7.39205e-05
7.85101e-05
8.32881e-05
8.82594e-05
9.34288e-05
9.88013e-05
0.000104382
0.000110176
0.000116189
0.000122426
0.000128892
0.000135593
0.000142535
0.000149723
0.000157162
0.00016486
0.000172821
0.000181052
0.000189558
0.000198345
0.000207421
0.00021679
0.000226458
0.000236433
0.000246721
0.000257327
0.000268258
0.00027952
0.00029112
0.000303063
0.000315357
0.000328008
0.000341021
0.000354404
0.000368162
0.000382302
0.00039683
0.000411753
0.000427076
0.000442806
0.000458949
0.000475511
0.000492498
0.000509915
0.00052777
0.000546066
0.000564811
0.00058401
0.000603668
0.000623791
0.000644384
0.000665452
0.000687
0.000709034
0.000731557
0.000754574
0.00077809
0.00080211
0.000826637
0.000851675
0.000877227
0.000903298
0.000929891
0.000957009
0.000984654
3.27622e-06
3.37357e-06
3.56841e-06
3.86103e-06
4.25186e-06
4.74148e-06
5.3306e-06
6.02007e-06
6.81091e-06
7.70425e-06
8.70139e-06
9.80373e-06
1.10129e-05
1.23305e-05
1.37584e-05
1.52987e-05
1.69534e-05
1.87247e-05
2.06152e-05
2.26273e-05
2.47636e-05
2.7027e-05
2.94203e-05
3.19467e-05
3.46093e-05
3.74114e-05
4.03565e-05
4.3448e-05
4.66898e-05
5.00855e-05
5.36391e-05
5.73546e-05
6.12362e-05
6.52881e-05
6.95147e-05
7.39205e-05
7.85101e-05
8.32881e-05
8.82594e-05
9.34288e-05
9.88013e-05
0.000104382
0.000110176
0.000116189
0.000122426
0.000128892
0.000135593
0.000142535
0.000149723
0.000157162
0.00016486
0.000172821
0.000181052
0.000189558
0.000198345
0.000207421
0.00021679
0.000226458
0.000236433
0.000246721
0.000257327
0.000268258
0.00027952
0.00029112
0.000303063
0.000315357
0.000328008
0.000341021
0.000354404
0.000368162
0.000382302
0.00039683
0.000411753
0.000427076
0.000442806
0.000458949
0.000475511
0.000492498
0.000509915
0.00052777
0.000546066
0.000564811
0.00058401
0.000603668
0.000623791
0.000644384
0.000665452
0.000687
0.000709034
0.000731557
0.000754574
0.00077809
0.00080211
0.000826637
0.000851675
0.000877227
0.000903298
0.000929891
0.000957009
0.000984654
)
;
    }
}


// ************************************************************************* //
