/*--------------------------------*- C++ -*----------------------------------*\
  =========                 |
  \\      /  F ield         | OpenFOAM: The Open Source CFD Toolbox
   \\    /   O peration     | Website:  https://openfoam.org
    \\  /    A nd           | Version:  9
     \\/     M anipulation  |
\*---------------------------------------------------------------------------*/
FoamFile
{
    format      ascii;
    class       volScalarField;
    location    "75600";
    object      gradTx;
}
// * * * * * * * * * * * * * * * * * * * * * * * * * * * * * * * * * * * * * //

dimensions      [0 -1 0 1 0 0 0];

internalField   nonuniform List<scalar> 
100
(
-499.985
-499.955
-499.925
-499.894
-499.861
-499.827
-499.791
-499.753
-499.711
-499.667
-499.619
-499.567
-499.511
-499.451
-499.385
-499.314
-499.236
-499.153
-499.063
-498.965
-498.86
-498.747
-498.626
-498.495
-498.355
-498.204
-498.043
-497.872
-497.688
-497.493
-497.284
-497.063
-496.828
-496.578
-496.313
-496.032
-495.736
-495.422
-495.09
-494.74
-494.371
-493.983
-493.573
-493.143
-492.69
-492.215
-491.715
-491.192
-490.643
-490.067
-489.465
-488.834
-488.175
-487.485
-486.765
-486.013
-485.228
-484.409
-483.555
-482.665
-481.738
-480.773
-479.768
-478.723
-477.636
-476.506
-475.332
-474.113
-472.847
-471.533
-470.17
-468.757
-467.291
-465.772
-464.199
-462.57
-460.883
-459.138
-457.332
-455.464
-453.533
-451.537
-449.475
-447.344
-445.145
-442.874
-440.53
-438.112
-435.618
-433.047
-430.396
-427.664
-424.85
-421.951
-418.966
-415.894
-412.731
-409.478
-406.131
-402.689
)
;

boundaryField
{
    left
    {
        type            calculated;
        value           uniform -500;
    }
    right
    {
        type            calculated;
        value           uniform -400.945;
    }
    frontAndBack
    {
        type            empty;
    }
    top_bottom
    {
        type            calculated;
        value           nonuniform List<scalar> 
200
(
-499.985
-499.955
-499.925
-499.894
-499.861
-499.827
-499.791
-499.753
-499.711
-499.667
-499.619
-499.567
-499.511
-499.451
-499.385
-499.314
-499.236
-499.153
-499.063
-498.965
-498.86
-498.747
-498.626
-498.495
-498.355
-498.204
-498.043
-497.872
-497.688
-497.493
-497.284
-497.063
-496.828
-496.578
-496.313
-496.032
-495.736
-495.422
-495.09
-494.74
-494.371
-493.983
-493.573
-493.143
-492.69
-492.215
-491.715
-491.192
-490.643
-490.067
-489.465
-488.834
-488.175
-487.485
-486.765
-486.013
-485.228
-484.409
-483.555
-482.665
-481.738
-480.773
-479.768
-478.723
-477.636
-476.506
-475.332
-474.113
-472.847
-471.533
-470.17
-468.757
-467.291
-465.772
-464.199
-462.57
-460.883
-459.138
-457.332
-455.464
-453.533
-451.537
-449.475
-447.344
-445.145
-442.874
-440.53
-438.112
-435.618
-433.047
-430.396
-427.664
-424.85
-421.951
-418.966
-415.894
-412.731
-409.478
-406.131
-402.689
-499.985
-499.955
-499.925
-499.894
-499.861
-499.827
-499.791
-499.753
-499.711
-499.667
-499.619
-499.567
-499.511
-499.451
-499.385
-499.314
-499.236
-499.153
-499.063
-498.965
-498.86
-498.747
-498.626
-498.495
-498.355
-498.204
-498.043
-497.872
-497.688
-497.493
-497.284
-497.063
-496.828
-496.578
-496.313
-496.032
-495.736
-495.422
-495.09
-494.74
-494.371
-493.983
-493.573
-493.143
-492.69
-492.215
-491.715
-491.192
-490.643
-490.067
-489.465
-488.834
-488.175
-487.485
-486.765
-486.013
-485.228
-484.409
-483.555
-482.665
-481.738
-480.773
-479.768
-478.723
-477.636
-476.506
-475.332
-474.113
-472.847
-471.533
-470.17
-468.757
-467.291
-465.772
-464.199
-462.57
-460.883
-459.138
-457.332
-455.464
-453.533
-451.537
-449.475
-447.344
-445.145
-442.874
-440.53
-438.112
-435.618
-433.047
-430.396
-427.664
-424.85
-421.951
-418.966
-415.894
-412.731
-409.478
-406.131
-402.689
)
;
    }
}


// ************************************************************************* //
