/*--------------------------------*- C++ -*----------------------------------*\
  =========                 |
  \\      /  F ield         | OpenFOAM: The Open Source CFD Toolbox
   \\    /   O peration     | Website:  https://openfoam.org
    \\  /    A nd           | Version:  9
     \\/     M anipulation  |
\*---------------------------------------------------------------------------*/
FoamFile
{
    format      ascii;
    class       volScalarField;
    location    "75600";
    object      T;
}
// * * * * * * * * * * * * * * * * * * * * * * * * * * * * * * * * * * * * * //

dimensions      [0 0 0 1 0 0 0];

internalField   nonuniform List<scalar> 
100
(
373.817
372.817
371.817
370.817
369.818
368.818
367.818
366.819
365.819
364.82
363.821
362.821
361.822
360.823
359.825
358.826
357.827
356.829
355.831
354.833
353.835
352.837
351.84
350.843
349.846
348.849
347.853
346.857
345.862
344.866
343.872
342.877
341.883
340.89
339.897
338.905
337.913
336.922
335.931
334.941
333.952
332.964
331.976
330.99
330.004
329.019
328.035
327.052
326.07
325.089
324.11
323.131
322.154
321.179
320.205
319.232
318.26
317.291
316.323
315.357
314.392
313.43
312.469
311.511
310.554
309.6
308.648
307.699
306.752
305.807
304.866
303.927
302.991
302.057
301.127
300.201
299.277
298.357
297.441
296.528
295.619
294.714
293.813
292.916
292.023
291.135
290.252
289.373
288.499
287.631
286.767
285.909
285.056
284.21
283.369
282.534
281.705
280.883
280.067
279.258
)
;

boundaryField
{
    left
    {
        type            fixedGradient;
        gradient        uniform 500;
    }
    right
    {
        type            uniformFixedValue;
        uniformValue    
        {
            type            sine;
            amplitude       
            {
                type            constant;
                value           20;
            }
            frequency       1.1574e-05;
            start           0;
            level           
            {
                type            constant;
                value           293;
            }
        }
        value           uniform 278.857;
    }
    frontAndBack
    {
        type            empty;
    }
    top_bottom
    {
        type            zeroGradient;
    }
}


// ************************************************************************* //
