/*--------------------------------*- C++ -*----------------------------------*\
  =========                 |
  \\      /  F ield         | OpenFOAM: The Open Source CFD Toolbox
   \\    /   O peration     | Website:  https://openfoam.org
    \\  /    A nd           | Version:  9
     \\/     M anipulation  |
\*---------------------------------------------------------------------------*/
FoamFile
{
    format      ascii;
    class       volScalarField;
    location    "75600";
    object      T_0;
}
// * * * * * * * * * * * * * * * * * * * * * * * * * * * * * * * * * * * * * //

dimensions      [0 0 0 1 0 0 0];

internalField   nonuniform List<scalar> 
100
(
373.815
372.815
371.815
370.815
369.815
368.815
367.815
366.815
365.816
364.816
363.816
362.817
361.817
360.818
359.818
358.819
357.82
356.821
355.822
354.823
353.824
352.826
351.828
350.83
349.832
348.834
347.837
346.84
345.843
344.847
343.85
342.855
341.859
340.864
339.87
338.876
337.882
336.89
335.897
334.905
333.914
332.924
331.934
330.945
329.957
328.97
327.983
326.998
326.013
325.03
324.048
323.066
322.086
321.107
320.13
319.154
318.179
317.206
316.234
315.264
314.296
313.329
312.365
311.402
310.441
309.483
308.526
307.572
306.62
305.671
304.724
303.779
302.838
301.899
300.964
300.031
299.101
298.175
297.252
296.333
295.417
294.505
293.597
292.693
291.794
290.898
290.007
289.12
288.239
287.362
286.49
285.623
284.762
283.906
283.056
282.212
281.374
280.542
279.717
278.898
)
;

boundaryField
{
    left
    {
        type            fixedGradient;
        gradient        uniform 500;
    }
    right
    {
        type            uniformFixedValue;
        uniformValue    
        {
            type            sine;
            amplitude       
            {
                type            constant;
                value           20;
            }
            frequency       1.1574e-05;
            start           0;
            level           
            {
                type            constant;
                value           293;
            }
        }
        value           uniform 278.492;
    }
    frontAndBack
    {
        type            empty;
    }
    top_bottom
    {
        type            zeroGradient;
    }
}


// ************************************************************************* //
