/*--------------------------------*- C++ -*----------------------------------*\
  =========                 |
  \\      /  F ield         | OpenFOAM: The Open Source CFD Toolbox
   \\    /   O peration     | Website:  https://openfoam.org
    \\  /    A nd           | Version:  9
     \\/     M anipulation  |
\*---------------------------------------------------------------------------*/
FoamFile
{
    format      ascii;
    class       volScalarField;
    location    "28800";
    object      ddt0(T);
}
// * * * * * * * * * * * * * * * * * * * * * * * * * * * * * * * * * * * * * //

dimensions      [0 0 -1 1 0 0 0];

internalField   nonuniform List<scalar> 
100
(
0.00300218
0.00300143
0.00299994
0.00299769
0.00299471
0.00299097
0.00298649
0.00298126
0.00297528
0.00296856
0.00296109
0.00295288
0.00294391
0.0029342
0.00292375
0.00291254
0.00290059
0.0028879
0.00287446
0.00286027
0.00284534
0.00282966
0.00281323
0.00279606
0.00277814
0.00275948
0.00274007
0.00271992
0.00269902
0.00267738
0.002655
0.00263187
0.00260799
0.00258337
0.00255801
0.00253191
0.00250506
0.00247747
0.00244913
0.00242006
0.00239024
0.00235968
0.00232838
0.00229634
0.00226356
0.00223004
0.00219578
0.00216078
0.00212504
0.00208857
0.00205135
0.0020134
0.00197471
0.00193529
0.00189513
0.00185424
0.00181261
0.00177025
0.00172715
0.00168333
0.00163877
0.00159349
0.00154747
0.00150073
0.00145326
0.00140506
0.00135613
0.00130649
0.00125612
0.00120502
0.00115321
0.00110068
0.00104743
0.000993459
0.000938776
0.00088338
0.000827271
0.000770452
0.000712925
0.000654691
0.000595751
0.000536109
0.000475766
0.000414725
0.000352986
0.000290554
0.00022743
0.000163617
9.91168e-05
3.39332e-05
-3.19313e-05
-9.84737e-05
-0.000165691
-0.00023358
-0.000302137
-0.000371358
-0.000441241
-0.000511781
-0.000582975
-0.000654817
)
;

boundaryField
{
    left
    {
        type            calculated;
        value           uniform 0.00300218;
    }
    right
    {
        type            calculated;
        value           uniform -0.000691061;
    }
    frontAndBack
    {
        type            empty;
    }
    top_bottom
    {
        type            calculated;
        value           nonuniform List<scalar> 
200
(
0.00300218
0.00300143
0.00299994
0.00299769
0.00299471
0.00299097
0.00298649
0.00298126
0.00297528
0.00296856
0.00296109
0.00295288
0.00294391
0.0029342
0.00292375
0.00291254
0.00290059
0.0028879
0.00287446
0.00286027
0.00284534
0.00282966
0.00281323
0.00279606
0.00277814
0.00275948
0.00274007
0.00271992
0.00269902
0.00267738
0.002655
0.00263187
0.00260799
0.00258337
0.00255801
0.00253191
0.00250506
0.00247747
0.00244913
0.00242006
0.00239024
0.00235968
0.00232838
0.00229634
0.00226356
0.00223004
0.00219578
0.00216078
0.00212504
0.00208857
0.00205135
0.0020134
0.00197471
0.00193529
0.00189513
0.00185424
0.00181261
0.00177025
0.00172715
0.00168333
0.00163877
0.00159349
0.00154747
0.00150073
0.00145326
0.00140506
0.00135613
0.00130649
0.00125612
0.00120502
0.00115321
0.00110068
0.00104743
0.000993459
0.000938776
0.00088338
0.000827271
0.000770452
0.000712925
0.000654691
0.000595751
0.000536109
0.000475766
0.000414725
0.000352986
0.000290554
0.00022743
0.000163617
9.91168e-05
3.39332e-05
-3.19313e-05
-9.84737e-05
-0.000165691
-0.00023358
-0.000302137
-0.000371358
-0.000441241
-0.000511781
-0.000582975
-0.000654817
0.00300218
0.00300143
0.00299994
0.00299769
0.00299471
0.00299097
0.00298649
0.00298126
0.00297528
0.00296856
0.00296109
0.00295288
0.00294391
0.0029342
0.00292375
0.00291254
0.00290059
0.0028879
0.00287446
0.00286027
0.00284534
0.00282966
0.00281323
0.00279606
0.00277814
0.00275948
0.00274007
0.00271992
0.00269902
0.00267738
0.002655
0.00263187
0.00260799
0.00258337
0.00255801
0.00253191
0.00250506
0.00247747
0.00244913
0.00242006
0.00239024
0.00235968
0.00232838
0.00229634
0.00226356
0.00223004
0.00219578
0.00216078
0.00212504
0.00208857
0.00205135
0.0020134
0.00197471
0.00193529
0.00189513
0.00185424
0.00181261
0.00177025
0.00172715
0.00168333
0.00163877
0.00159349
0.00154747
0.00150073
0.00145326
0.00140506
0.00135613
0.00130649
0.00125612
0.00120502
0.00115321
0.00110068
0.00104743
0.000993459
0.000938776
0.00088338
0.000827271
0.000770452
0.000712925
0.000654691
0.000595751
0.000536109
0.000475766
0.000414725
0.000352986
0.000290554
0.00022743
0.000163617
9.91168e-05
3.39332e-05
-3.19313e-05
-9.84737e-05
-0.000165691
-0.00023358
-0.000302137
-0.000371358
-0.000441241
-0.000511781
-0.000582975
-0.000654817
)
;
    }
}


// ************************************************************************* //
