/*--------------------------------*- C++ -*----------------------------------*\
  =========                 |
  \\      /  F ield         | OpenFOAM: The Open Source CFD Toolbox
   \\    /   O peration     | Website:  https://openfoam.org
    \\  /    A nd           | Version:  9
     \\/     M anipulation  |
\*---------------------------------------------------------------------------*/
FoamFile
{
    format      ascii;
    class       volScalarField;
    location    "28800";
    object      gradTx;
}
// * * * * * * * * * * * * * * * * * * * * * * * * * * * * * * * * * * * * * //

dimensions      [0 -1 0 1 0 0 0];

internalField   nonuniform List<scalar> 
100
(
-494.891
-484.674
-474.462
-464.255
-454.058
-443.872
-433.701
-423.546
-413.411
-403.297
-393.208
-383.146
-373.113
-363.113
-353.147
-343.219
-333.331
-323.485
-313.684
-303.931
-294.228
-284.577
-274.983
-265.445
-255.969
-246.555
-237.207
-227.928
-218.719
-209.583
-200.523
-191.542
-182.641
-173.825
-165.094
-156.452
-147.901
-139.444
-131.083
-122.822
-114.662
-106.605
-98.6557
-90.8153
-83.0865
-75.4719
-67.9742
-60.5957
-53.3392
-46.207
-39.2018
-32.3261
-25.5824
-18.9733
-12.5012
-6.1688
0.0214715
6.06707
11.9655
17.7142
23.3107
28.7524
34.0369
39.1616
44.1241
48.9218
53.5523
58.013
62.3016
66.4154
70.352
74.109
77.6838
81.0741
84.2773
87.291
90.1128
92.7402
95.1708
97.4022
99.4319
101.258
102.877
104.287
105.486
106.471
107.241
107.792
108.122
108.229
108.111
107.765
107.189
106.381
105.338
104.059
102.54
100.78
98.7759
96.5263
)
;

boundaryField
{
    left
    {
        type            calculated;
        value           uniform -500;
    }
    right
    {
        type            calculated;
        value           uniform 95.3397;
    }
    frontAndBack
    {
        type            empty;
    }
    top_bottom
    {
        type            calculated;
        value           nonuniform List<scalar> 
200
(
-494.891
-484.674
-474.462
-464.255
-454.058
-443.872
-433.701
-423.546
-413.411
-403.297
-393.208
-383.146
-373.113
-363.113
-353.147
-343.219
-333.331
-323.485
-313.684
-303.931
-294.228
-284.577
-274.983
-265.445
-255.969
-246.555
-237.207
-227.928
-218.719
-209.583
-200.523
-191.542
-182.641
-173.825
-165.094
-156.452
-147.901
-139.444
-131.083
-122.822
-114.662
-106.605
-98.6557
-90.8153
-83.0865
-75.4719
-67.9742
-60.5957
-53.3392
-46.207
-39.2018
-32.3261
-25.5824
-18.9733
-12.5012
-6.1688
0.0214715
6.06707
11.9655
17.7142
23.3107
28.7524
34.0369
39.1616
44.1241
48.9218
53.5523
58.013
62.3016
66.4154
70.352
74.109
77.6838
81.0741
84.2773
87.291
90.1128
92.7402
95.1708
97.4022
99.4319
101.258
102.877
104.287
105.486
106.471
107.241
107.792
108.122
108.229
108.111
107.765
107.189
106.381
105.338
104.059
102.54
100.78
98.7759
96.5263
-494.891
-484.674
-474.462
-464.255
-454.058
-443.872
-433.701
-423.546
-413.411
-403.297
-393.208
-383.146
-373.113
-363.113
-353.147
-343.219
-333.331
-323.485
-313.684
-303.931
-294.228
-284.577
-274.983
-265.445
-255.969
-246.555
-237.207
-227.928
-218.719
-209.583
-200.523
-191.542
-182.641
-173.825
-165.094
-156.452
-147.901
-139.444
-131.083
-122.822
-114.662
-106.605
-98.6557
-90.8153
-83.0865
-75.4719
-67.9742
-60.5957
-53.3392
-46.207
-39.2018
-32.3261
-25.5824
-18.9733
-12.5012
-6.1688
0.0214715
6.06707
11.9655
17.7142
23.3107
28.7524
34.0369
39.1616
44.1241
48.9218
53.5523
58.013
62.3016
66.4154
70.352
74.109
77.6838
81.0741
84.2773
87.291
90.1128
92.7402
95.1708
97.4022
99.4319
101.258
102.877
104.287
105.486
106.471
107.241
107.792
108.122
108.229
108.111
107.765
107.189
106.381
105.338
104.059
102.54
100.78
98.7759
96.5263
)
;
    }
}


// ************************************************************************* //
