/*--------------------------------*- C++ -*----------------------------------*\
  =========                 |
  \\      /  F ield         | OpenFOAM: The Open Source CFD Toolbox
   \\    /   O peration     | Website:  https://openfoam.org
    \\  /    A nd           | Version:  9
     \\/     M anipulation  |
\*---------------------------------------------------------------------------*/
FoamFile
{
    format      ascii;
    class       volScalarField;
    location    "28800";
    object      T;
}
// * * * * * * * * * * * * * * * * * * * * * * * * * * * * * * * * * * * * * //

dimensions      [0 0 0 1 0 0 0];

internalField   nonuniform List<scalar> 
100
(
329.019
328.039
327.08
326.141
325.223
324.325
323.447
322.59
321.753
320.937
320.14
319.364
318.607
317.871
317.155
316.459
315.782
315.125
314.488
313.871
313.272
312.694
312.134
311.594
311.072
310.57
310.086
309.621
309.174
308.746
308.336
307.944
307.57
307.214
306.875
306.553
306.249
305.962
305.691
305.437
305.2
304.979
304.773
304.584
304.41
304.252
304.108
303.98
303.866
303.766
303.681
303.61
303.552
303.507
303.476
303.457
303.451
303.457
303.475
303.505
303.546
303.598
303.661
303.735
303.818
303.911
304.014
304.125
304.246
304.374
304.511
304.656
304.808
304.967
305.132
305.304
305.481
305.664
305.852
306.045
306.242
306.443
306.647
306.854
307.064
307.276
307.49
307.705
307.921
308.137
308.354
308.57
308.785
308.999
309.211
309.42
309.627
309.83
310.03
310.225
)
;

boundaryField
{
    left
    {
        type            fixedGradient;
        gradient        uniform 500;
    }
    right
    {
        type            uniformFixedValue;
        uniformValue    
        {
            type            sine;
            amplitude       
            {
                type            constant;
                value           20;
            }
            frequency       1.1574e-05;
            start           0;
            level           
            {
                type            constant;
                value           293;
            }
        }
        value           uniform 310.321;
    }
    frontAndBack
    {
        type            empty;
    }
    top_bottom
    {
        type            zeroGradient;
    }
}


// ************************************************************************* //
