/*--------------------------------*- C++ -*----------------------------------*\
  =========                 |
  \\      /  F ield         | OpenFOAM: The Open Source CFD Toolbox
   \\    /   O peration     | Website:  https://openfoam.org
    \\  /    A nd           | Version:  9
     \\/     M anipulation  |
\*---------------------------------------------------------------------------*/
FoamFile
{
    format      ascii;
    class       volScalarField;
    location    "28800";
    object      T_0;
}
// * * * * * * * * * * * * * * * * * * * * * * * * * * * * * * * * * * * * * //

dimensions      [0 0 0 1 0 0 0];

internalField   nonuniform List<scalar> 
100
(
327.946
326.967
326.008
325.07
324.153
323.256
322.381
321.525
320.69
319.876
319.082
318.309
317.556
316.823
316.111
315.418
314.746
314.094
313.462
312.849
312.256
311.683
311.13
310.595
310.08
309.585
309.108
308.65
308.211
307.791
307.389
307.005
306.639
306.292
305.962
305.65
305.355
305.078
304.818
304.574
304.347
304.137
303.943
303.765
303.603
303.457
303.326
303.21
303.109
303.023
302.951
302.893
302.849
302.819
302.802
302.798
302.807
302.828
302.862
302.907
302.964
303.033
303.112
303.202
303.303
303.413
303.533
303.663
303.801
303.949
304.104
304.268
304.439
304.617
304.802
304.994
305.191
305.395
305.603
305.817
306.035
306.257
306.483
306.712
306.945
307.179
307.416
307.654
307.893
308.133
308.373
308.613
308.852
309.09
309.327
309.561
309.793
310.022
310.247
310.468
)
;

boundaryField
{
    left
    {
        type            fixedGradient;
        gradient        uniform 500;
    }
    right
    {
        type            uniformFixedValue;
        uniformValue    
        {
            type            sine;
            amplitude       
            {
                type            constant;
                value           20;
            }
            frequency       1.1574e-05;
            start           0;
            level           
            {
                type            constant;
                value           293;
            }
        }
        value           uniform 310.576;
    }
    frontAndBack
    {
        type            empty;
    }
    top_bottom
    {
        type            zeroGradient;
    }
}


// ************************************************************************* //
