/*--------------------------------*- C++ -*----------------------------------*\
  =========                 |
  \\      /  F ield         | OpenFOAM: The Open Source CFD Toolbox
   \\    /   O peration     | Website:  https://openfoam.org
    \\  /    A nd           | Version:  9
     \\/     M anipulation  |
\*---------------------------------------------------------------------------*/
FoamFile
{
    format      ascii;
    class       volScalarField;
    location    "82800";
    object      ddt0(T);
}
// * * * * * * * * * * * * * * * * * * * * * * * * * * * * * * * * * * * * * //

dimensions      [0 0 -1 1 0 0 0];

internalField   nonuniform List<scalar> 
100
(
0.000170908
0.000171118
0.000171538
0.000172167
0.000173007
0.000174057
0.000175318
0.000176791
0.000178474
0.000180371
0.00018248
0.000184802
0.000187339
0.000190091
0.000193059
0.000196244
0.000199646
0.000203268
0.000207109
0.000211172
0.000215457
0.000219966
0.000224699
0.000229659
0.000234847
0.000240264
0.000245912
0.000251792
0.000257907
0.000264256
0.000270843
0.000277669
0.000284735
0.000292044
0.000299598
0.000307397
0.000315444
0.000323741
0.000332289
0.000341091
0.000350149
0.000359463
0.000369037
0.000378872
0.00038897
0.000399333
0.000409962
0.00042086
0.000432028
0.000443469
0.000455183
0.000467174
0.000479442
0.000491989
0.000504816
0.000517926
0.000531321
0.000545
0.000558966
0.00057322
0.000587764
0.000602598
0.000617724
0.000633143
0.000648856
0.000664863
0.000681165
0.000697763
0.000714657
0.000731848
0.000749336
0.000767121
0.000785204
0.000803583
0.000822259
0.000841231
0.000860499
0.000880061
0.000899917
0.000920066
0.000940507
0.000961237
0.000982255
0.00100356
0.00102515
0.00104702
0.00106917
0.00109159
0.00111429
0.00113725
0.00116049
0.00118398
0.00120774
0.00123174
0.001256
0.0012805
0.00130524
0.00133021
0.00135541
0.00138082
)
;

boundaryField
{
    left
    {
        type            calculated;
        value           uniform 0.000170908;
    }
    right
    {
        type            calculated;
        value           uniform 0.00139364;
    }
    frontAndBack
    {
        type            empty;
    }
    top_bottom
    {
        type            calculated;
        value           nonuniform List<scalar> 
200
(
0.000170908
0.000171118
0.000171538
0.000172167
0.000173007
0.000174057
0.000175318
0.000176791
0.000178474
0.000180371
0.00018248
0.000184802
0.000187339
0.000190091
0.000193059
0.000196244
0.000199646
0.000203268
0.000207109
0.000211172
0.000215457
0.000219966
0.000224699
0.000229659
0.000234847
0.000240264
0.000245912
0.000251792
0.000257907
0.000264256
0.000270843
0.000277669
0.000284735
0.000292044
0.000299598
0.000307397
0.000315444
0.000323741
0.000332289
0.000341091
0.000350149
0.000359463
0.000369037
0.000378872
0.00038897
0.000399333
0.000409962
0.00042086
0.000432028
0.000443469
0.000455183
0.000467174
0.000479442
0.000491989
0.000504816
0.000517926
0.000531321
0.000545
0.000558966
0.00057322
0.000587764
0.000602598
0.000617724
0.000633143
0.000648856
0.000664863
0.000681165
0.000697763
0.000714657
0.000731848
0.000749336
0.000767121
0.000785204
0.000803583
0.000822259
0.000841231
0.000860499
0.000880061
0.000899917
0.000920066
0.000940507
0.000961237
0.000982255
0.00100356
0.00102515
0.00104702
0.00106917
0.00109159
0.00111429
0.00113725
0.00116049
0.00118398
0.00120774
0.00123174
0.001256
0.0012805
0.00130524
0.00133021
0.00135541
0.00138082
0.000170908
0.000171118
0.000171538
0.000172167
0.000173007
0.000174057
0.000175318
0.000176791
0.000178474
0.000180371
0.00018248
0.000184802
0.000187339
0.000190091
0.000193059
0.000196244
0.000199646
0.000203268
0.000207109
0.000211172
0.000215457
0.000219966
0.000224699
0.000229659
0.000234847
0.000240264
0.000245912
0.000251792
0.000257907
0.000264256
0.000270843
0.000277669
0.000284735
0.000292044
0.000299598
0.000307397
0.000315444
0.000323741
0.000332289
0.000341091
0.000350149
0.000359463
0.000369037
0.000378872
0.00038897
0.000399333
0.000409962
0.00042086
0.000432028
0.000443469
0.000455183
0.000467174
0.000479442
0.000491989
0.000504816
0.000517926
0.000531321
0.000545
0.000558966
0.00057322
0.000587764
0.000602598
0.000617724
0.000633143
0.000648856
0.000664863
0.000681165
0.000697763
0.000714657
0.000731848
0.000749336
0.000767121
0.000785204
0.000803583
0.000822259
0.000841231
0.000860499
0.000880061
0.000899917
0.000920066
0.000940507
0.000961237
0.000982255
0.00100356
0.00102515
0.00104702
0.00106917
0.00109159
0.00111429
0.00113725
0.00116049
0.00118398
0.00120774
0.00123174
0.001256
0.0012805
0.00130524
0.00133021
0.00135541
0.00138082
)
;
    }
}


// ************************************************************************* //
