/*--------------------------------*- C++ -*----------------------------------*\
  =========                 |
  \\      /  F ield         | OpenFOAM: The Open Source CFD Toolbox
   \\    /   O peration     | Website:  https://openfoam.org
    \\  /    A nd           | Version:  9
     \\/     M anipulation  |
\*---------------------------------------------------------------------------*/
FoamFile
{
    format      ascii;
    class       volScalarField;
    location    "82800";
    object      gradTx;
}
// * * * * * * * * * * * * * * * * * * * * * * * * * * * * * * * * * * * * * //

dimensions      [0 -1 0 1 0 0 0];

internalField   nonuniform List<scalar> 
100
(
-499.686
-499.058
-498.429
-497.799
-497.165
-496.529
-495.888
-495.242
-494.591
-493.934
-493.27
-492.598
-491.917
-491.227
-490.527
-489.817
-489.095
-488.36
-487.613
-486.851
-486.075
-485.284
-484.476
-483.652
-482.809
-481.949
-481.069
-480.168
-479.247
-478.304
-477.338
-476.349
-475.336
-474.298
-473.233
-472.142
-471.024
-469.876
-468.7
-467.493
-466.255
-464.985
-463.682
-462.346
-460.974
-459.568
-458.124
-456.643
-455.124
-453.566
-451.967
-450.327
-448.645
-446.92
-445.151
-443.337
-441.477
-439.57
-437.616
-435.612
-433.559
-431.454
-429.298
-427.089
-424.827
-422.509
-420.136
-417.706
-415.218
-412.671
-410.065
-407.397
-404.668
-401.877
-399.021
-396.1
-393.114
-390.061
-386.941
-383.751
-380.492
-377.163
-373.761
-370.287
-366.74
-363.118
-359.421
-355.647
-351.797
-347.868
-343.86
-339.773
-335.605
-331.355
-327.023
-322.608
-318.11
-313.526
-308.857
-304.103
)
;

boundaryField
{
    left
    {
        type            calculated;
        value           uniform -500;
    }
    right
    {
        type            calculated;
        value           uniform -301.704;
    }
    frontAndBack
    {
        type            empty;
    }
    top_bottom
    {
        type            calculated;
        value           nonuniform List<scalar> 
200
(
-499.686
-499.058
-498.429
-497.799
-497.165
-496.529
-495.888
-495.242
-494.591
-493.934
-493.27
-492.598
-491.917
-491.227
-490.527
-489.817
-489.095
-488.36
-487.613
-486.851
-486.075
-485.284
-484.476
-483.652
-482.809
-481.949
-481.069
-480.168
-479.247
-478.304
-477.338
-476.349
-475.336
-474.298
-473.233
-472.142
-471.024
-469.876
-468.7
-467.493
-466.255
-464.985
-463.682
-462.346
-460.974
-459.568
-458.124
-456.643
-455.124
-453.566
-451.967
-450.327
-448.645
-446.92
-445.151
-443.337
-441.477
-439.57
-437.616
-435.612
-433.559
-431.454
-429.298
-427.089
-424.827
-422.509
-420.136
-417.706
-415.218
-412.671
-410.065
-407.397
-404.668
-401.877
-399.021
-396.1
-393.114
-390.061
-386.941
-383.751
-380.492
-377.163
-373.761
-370.287
-366.74
-363.118
-359.421
-355.647
-351.797
-347.868
-343.86
-339.773
-335.605
-331.355
-327.023
-322.608
-318.11
-313.526
-308.857
-304.103
-499.686
-499.058
-498.429
-497.799
-497.165
-496.529
-495.888
-495.242
-494.591
-493.934
-493.27
-492.598
-491.917
-491.227
-490.527
-489.817
-489.095
-488.36
-487.613
-486.851
-486.075
-485.284
-484.476
-483.652
-482.809
-481.949
-481.069
-480.168
-479.247
-478.304
-477.338
-476.349
-475.336
-474.298
-473.233
-472.142
-471.024
-469.876
-468.7
-467.493
-466.255
-464.985
-463.682
-462.346
-460.974
-459.568
-458.124
-456.643
-455.124
-453.566
-451.967
-450.327
-448.645
-446.92
-445.151
-443.337
-441.477
-439.57
-437.616
-435.612
-433.559
-431.454
-429.298
-427.089
-424.827
-422.509
-420.136
-417.706
-415.218
-412.671
-410.065
-407.397
-404.668
-401.877
-399.021
-396.1
-393.114
-390.061
-386.941
-383.751
-380.492
-377.163
-373.761
-370.287
-366.74
-363.118
-359.421
-355.647
-351.797
-347.868
-343.86
-339.773
-335.605
-331.355
-327.023
-322.608
-318.11
-313.526
-308.857
-304.103
)
;
    }
}


// ************************************************************************* //
