/*--------------------------------*- C++ -*----------------------------------*\
  =========                 |
  \\      /  F ield         | OpenFOAM: The Open Source CFD Toolbox
   \\    /   O peration     | Website:  https://openfoam.org
    \\  /    A nd           | Version:  9
     \\/     M anipulation  |
\*---------------------------------------------------------------------------*/
FoamFile
{
    format      ascii;
    class       volScalarField;
    location    "82800";
    object      T;
}
// * * * * * * * * * * * * * * * * * * * * * * * * * * * * * * * * * * * * * //

dimensions      [0 0 0 1 0 0 0];

internalField   nonuniform List<scalar> 
100
(
374.441
373.442
372.444
371.448
370.453
369.46
368.467
367.476
366.486
365.498
364.51
363.525
362.54
361.557
360.575
359.595
358.616
357.638
356.662
355.688
354.715
353.744
352.774
351.806
350.839
349.874
348.911
347.95
346.991
346.033
345.078
344.124
343.172
342.223
341.275
340.33
339.386
338.445
337.507
336.571
335.637
334.706
333.777
332.851
331.928
331.007
330.089
329.175
328.263
327.354
326.449
325.546
324.647
323.752
322.86
321.971
321.086
320.205
319.328
318.455
317.585
316.72
315.86
315.003
314.151
313.304
312.461
311.623
310.79
309.962
309.14
308.322
307.51
306.704
305.903
305.107
304.318
303.535
302.758
301.987
301.223
300.465
299.714
298.97
298.233
297.503
296.781
296.066
295.358
294.658
293.967
293.283
292.608
291.941
291.282
290.632
289.992
289.36
288.738
288.125
)
;

boundaryField
{
    left
    {
        type            fixedGradient;
        gradient        uniform 500;
    }
    right
    {
        type            uniformFixedValue;
        uniformValue    
        {
            type            sine;
            amplitude       
            {
                type            constant;
                value           20;
            }
            frequency       1.1574e-05;
            start           0;
            level           
            {
                type            constant;
                value           293;
            }
        }
        value           uniform 287.823;
    }
    frontAndBack
    {
        type            empty;
    }
    top_bottom
    {
        type            zeroGradient;
    }
}


// ************************************************************************* //
