/*--------------------------------*- C++ -*----------------------------------*\
  =========                 |
  \\      /  F ield         | OpenFOAM: The Open Source CFD Toolbox
   \\    /   O peration     | Website:  https://openfoam.org
    \\  /    A nd           | Version:  9
     \\/     M anipulation  |
\*---------------------------------------------------------------------------*/
FoamFile
{
    format      ascii;
    class       volScalarField;
    location    "82800";
    object      T_0;
}
// * * * * * * * * * * * * * * * * * * * * * * * * * * * * * * * * * * * * * //

dimensions      [0 0 0 1 0 0 0];

internalField   nonuniform List<scalar> 
100
(
374.377
373.378
372.38
371.384
370.389
369.395
368.402
367.41
366.42
365.43
364.442
363.456
362.47
361.486
360.503
359.522
358.542
357.563
356.585
355.609
354.635
353.662
352.69
351.721
350.752
349.785
348.82
347.857
346.895
345.935
344.977
344.021
343.067
342.115
341.164
340.216
339.27
338.326
337.384
336.445
335.508
334.573
333.641
332.712
331.785
330.86
329.939
329.02
328.104
327.191
326.282
325.375
324.472
323.571
322.675
321.781
320.892
320.006
319.123
318.245
317.371
316.5
315.634
314.772
313.914
313.061
312.213
311.369
310.53
309.696
308.867
308.043
307.224
306.411
305.603
304.801
304.005
303.215
302.431
301.653
300.881
300.116
299.358
298.606
297.861
297.123
296.393
295.67
294.954
294.246
293.546
292.854
292.17
291.494
290.827
290.169
289.519
288.879
288.247
287.625
)
;

boundaryField
{
    left
    {
        type            fixedGradient;
        gradient        uniform 500;
    }
    right
    {
        type            uniformFixedValue;
        uniformValue    
        {
            type            sine;
            amplitude       
            {
                type            constant;
                value           20;
            }
            frequency       1.1574e-05;
            start           0;
            level           
            {
                type            constant;
                value           293;
            }
        }
        value           uniform 287.319;
    }
    frontAndBack
    {
        type            empty;
    }
    top_bottom
    {
        type            zeroGradient;
    }
}


// ************************************************************************* //
