/*--------------------------------*- C++ -*----------------------------------*\
  =========                 |
  \\      /  F ield         | OpenFOAM: The Open Source CFD Toolbox
   \\    /   O peration     | Website:  https://openfoam.org
    \\  /    A nd           | Version:  9
     \\/     M anipulation  |
\*---------------------------------------------------------------------------*/
FoamFile
{
    format      ascii;
    class       volScalarField;
    location    "79200";
    object      ddt0(T);
}
// * * * * * * * * * * * * * * * * * * * * * * * * * * * * * * * * * * * * * //

dimensions      [0 0 -1 1 0 0 0];

internalField   nonuniform List<scalar> 
100
(
7.24062e-05
7.25695e-05
7.28963e-05
7.33869e-05
7.40414e-05
7.48604e-05
7.58443e-05
7.69939e-05
7.831e-05
7.97932e-05
8.14447e-05
8.32656e-05
8.52569e-05
8.742e-05
8.97563e-05
9.22672e-05
9.49544e-05
9.78196e-05
0.000100864
0.000104091
0.000107501
0.000111097
0.000114881
0.000118855
0.000123021
0.000127382
0.000131941
0.0001367
0.000141662
0.000146829
0.000152205
0.000157792
0.000163594
0.000169613
0.000175852
0.000182316
0.000189006
0.000195928
0.000203083
0.000210475
0.000218109
0.000225987
0.000234113
0.00024249
0.000251124
0.000260016
0.000269171
0.000278594
0.000288287
0.000298254
0.0003085
0.000319027
0.000329842
0.000340946
0.000352344
0.00036404
0.000376038
0.000388342
0.000400955
0.000413882
0.000427126
0.000440691
0.000454581
0.0004688
0.000483352
0.000498239
0.000513466
0.000529036
0.000544953
0.00056122
0.000577841
0.000594818
0.000612155
0.000629855
0.000647921
0.000666355
0.000685162
0.000704342
0.000723899
0.000743834
0.000764151
0.000784852
0.000805938
0.00082741
0.000849272
0.000871523
0.000894166
0.000917201
0.000940629
0.000964452
0.000988668
0.00101328
0.00103829
0.00106369
0.00108948
0.00111567
0.00114225
0.00116922
0.00119657
0.00122432
)
;

boundaryField
{
    left
    {
        type            calculated;
        value           uniform 7.24062e-05;
    }
    right
    {
        type            calculated;
        value           uniform 0.00123839;
    }
    frontAndBack
    {
        type            empty;
    }
    top_bottom
    {
        type            calculated;
        value           nonuniform List<scalar> 
200
(
7.24062e-05
7.25695e-05
7.28963e-05
7.33869e-05
7.40414e-05
7.48604e-05
7.58443e-05
7.69939e-05
7.831e-05
7.97932e-05
8.14447e-05
8.32656e-05
8.52569e-05
8.742e-05
8.97563e-05
9.22672e-05
9.49544e-05
9.78196e-05
0.000100864
0.000104091
0.000107501
0.000111097
0.000114881
0.000118855
0.000123021
0.000127382
0.000131941
0.0001367
0.000141662
0.000146829
0.000152205
0.000157792
0.000163594
0.000169613
0.000175852
0.000182316
0.000189006
0.000195928
0.000203083
0.000210475
0.000218109
0.000225987
0.000234113
0.00024249
0.000251124
0.000260016
0.000269171
0.000278594
0.000288287
0.000298254
0.0003085
0.000319027
0.000329842
0.000340946
0.000352344
0.00036404
0.000376038
0.000388342
0.000400955
0.000413882
0.000427126
0.000440691
0.000454581
0.0004688
0.000483352
0.000498239
0.000513466
0.000529036
0.000544953
0.00056122
0.000577841
0.000594818
0.000612155
0.000629855
0.000647921
0.000666355
0.000685162
0.000704342
0.000723899
0.000743834
0.000764151
0.000784852
0.000805938
0.00082741
0.000849272
0.000871523
0.000894166
0.000917201
0.000940629
0.000964452
0.000988668
0.00101328
0.00103829
0.00106369
0.00108948
0.00111567
0.00114225
0.00116922
0.00119657
0.00122432
7.24062e-05
7.25695e-05
7.28963e-05
7.33869e-05
7.40414e-05
7.48604e-05
7.58443e-05
7.69939e-05
7.831e-05
7.97932e-05
8.14447e-05
8.32656e-05
8.52569e-05
8.742e-05
8.97563e-05
9.22672e-05
9.49544e-05
9.78196e-05
0.000100864
0.000104091
0.000107501
0.000111097
0.000114881
0.000118855
0.000123021
0.000127382
0.000131941
0.0001367
0.000141662
0.000146829
0.000152205
0.000157792
0.000163594
0.000169613
0.000175852
0.000182316
0.000189006
0.000195928
0.000203083
0.000210475
0.000218109
0.000225987
0.000234113
0.00024249
0.000251124
0.000260016
0.000269171
0.000278594
0.000288287
0.000298254
0.0003085
0.000319027
0.000329842
0.000340946
0.000352344
0.00036404
0.000376038
0.000388342
0.000400955
0.000413882
0.000427126
0.000440691
0.000454581
0.0004688
0.000483352
0.000498239
0.000513466
0.000529036
0.000544953
0.00056122
0.000577841
0.000594818
0.000612155
0.000629855
0.000647921
0.000666355
0.000685162
0.000704342
0.000723899
0.000743834
0.000764151
0.000784852
0.000805938
0.00082741
0.000849272
0.000871523
0.000894166
0.000917201
0.000940629
0.000964452
0.000988668
0.00101328
0.00103829
0.00106369
0.00108948
0.00111567
0.00114225
0.00116922
0.00119657
0.00122432
)
;
    }
}


// ************************************************************************* //
