/*--------------------------------*- C++ -*----------------------------------*\
  =========                 |
  \\      /  F ield         | OpenFOAM: The Open Source CFD Toolbox
   \\    /   O peration     | Website:  https://openfoam.org
    \\  /    A nd           | Version:  9
     \\/     M anipulation  |
\*---------------------------------------------------------------------------*/
FoamFile
{
    format      ascii;
    class       volScalarField;
    location    "79200";
    object      gradTx;
}
// * * * * * * * * * * * * * * * * * * * * * * * * * * * * * * * * * * * * * //

dimensions      [0 -1 0 1 0 0 0];

internalField   nonuniform List<scalar> 
100
(
-499.86
-499.58
-499.299
-499.017
-498.733
-498.446
-498.156
-497.862
-497.563
-497.26
-496.951
-496.636
-496.314
-495.985
-495.647
-495.301
-494.946
-494.581
-494.205
-493.819
-493.42
-493.009
-492.585
-492.147
-491.695
-491.227
-490.744
-490.244
-489.727
-489.192
-488.638
-488.065
-487.471
-486.857
-486.221
-485.563
-484.881
-484.175
-483.444
-482.688
-481.905
-481.095
-480.256
-479.389
-478.491
-477.563
-476.603
-475.61
-474.583
-473.522
-472.425
-471.292
-470.122
-468.913
-467.664
-466.375
-465.044
-463.671
-462.254
-460.793
-459.286
-457.731
-456.129
-454.478
-452.777
-451.024
-449.218
-447.359
-445.445
-443.475
-441.448
-439.362
-437.216
-435.01
-432.741
-430.41
-428.013
-425.55
-423.021
-420.422
-417.755
-415.016
-412.204
-409.319
-406.359
-403.323
-400.209
-397.017
-393.744
-390.39
-386.952
-383.431
-379.824
-376.131
-372.349
-368.478
-364.516
-360.462
-356.315
-352.073
)
;

boundaryField
{
    left
    {
        type            calculated;
        value           uniform -500;
    }
    right
    {
        type            calculated;
        value           uniform -349.928;
    }
    frontAndBack
    {
        type            empty;
    }
    top_bottom
    {
        type            calculated;
        value           nonuniform List<scalar> 
200
(
-499.86
-499.58
-499.299
-499.017
-498.733
-498.446
-498.156
-497.862
-497.563
-497.26
-496.951
-496.636
-496.314
-495.985
-495.647
-495.301
-494.946
-494.581
-494.205
-493.819
-493.42
-493.009
-492.585
-492.147
-491.695
-491.227
-490.744
-490.244
-489.727
-489.192
-488.638
-488.065
-487.471
-486.857
-486.221
-485.563
-484.881
-484.175
-483.444
-482.688
-481.905
-481.095
-480.256
-479.389
-478.491
-477.563
-476.603
-475.61
-474.583
-473.522
-472.425
-471.292
-470.122
-468.913
-467.664
-466.375
-465.044
-463.671
-462.254
-460.793
-459.286
-457.731
-456.129
-454.478
-452.777
-451.024
-449.218
-447.359
-445.445
-443.475
-441.448
-439.362
-437.216
-435.01
-432.741
-430.41
-428.013
-425.55
-423.021
-420.422
-417.755
-415.016
-412.204
-409.319
-406.359
-403.323
-400.209
-397.017
-393.744
-390.39
-386.952
-383.431
-379.824
-376.131
-372.349
-368.478
-364.516
-360.462
-356.315
-352.073
-499.86
-499.58
-499.299
-499.017
-498.733
-498.446
-498.156
-497.862
-497.563
-497.26
-496.951
-496.636
-496.314
-495.985
-495.647
-495.301
-494.946
-494.581
-494.205
-493.819
-493.42
-493.009
-492.585
-492.147
-491.695
-491.227
-490.744
-490.244
-489.727
-489.192
-488.638
-488.065
-487.471
-486.857
-486.221
-485.563
-484.881
-484.175
-483.444
-482.688
-481.905
-481.095
-480.256
-479.389
-478.491
-477.563
-476.603
-475.61
-474.583
-473.522
-472.425
-471.292
-470.122
-468.913
-467.664
-466.375
-465.044
-463.671
-462.254
-460.793
-459.286
-457.731
-456.129
-454.478
-452.777
-451.024
-449.218
-447.359
-445.445
-443.475
-441.448
-439.362
-437.216
-435.01
-432.741
-430.41
-428.013
-425.55
-423.021
-420.422
-417.755
-415.016
-412.204
-409.319
-406.359
-403.323
-400.209
-397.017
-393.744
-390.39
-386.952
-383.431
-379.824
-376.131
-372.349
-368.478
-364.516
-360.462
-356.315
-352.073
)
;
    }
}


// ************************************************************************* //
