/*--------------------------------*- C++ -*----------------------------------*\
  =========                 |
  \\      /  F ield         | OpenFOAM: The Open Source CFD Toolbox
   \\    /   O peration     | Website:  https://openfoam.org
    \\  /    A nd           | Version:  9
     \\/     M anipulation  |
\*---------------------------------------------------------------------------*/
FoamFile
{
    format      ascii;
    class       volScalarField;
    location    "79200";
    object      T;
}
// * * * * * * * * * * * * * * * * * * * * * * * * * * * * * * * * * * * * * //

dimensions      [0 0 0 1 0 0 0];

internalField   nonuniform List<scalar> 
100
(
373.971
372.971
371.972
370.974
369.976
368.979
367.983
366.987
365.991
364.996
364.002
363.009
362.016
361.023
360.032
359.041
358.05
357.061
356.072
355.084
354.097
353.11
352.125
351.14
350.156
349.173
348.191
347.21
346.23
345.251
344.274
343.297
342.321
341.347
340.374
339.402
338.432
337.463
336.495
335.529
334.564
333.601
332.64
331.68
330.722
329.766
328.812
327.86
326.91
325.961
325.015
324.072
323.13
322.191
321.255
320.321
319.389
318.46
317.534
316.611
315.691
314.774
313.86
312.95
312.042
311.139
310.238
309.342
308.449
307.56
306.675
305.794
304.918
304.045
303.178
302.314
301.456
300.602
299.754
298.91
298.072
297.239
296.412
295.59
294.775
293.965
293.161
292.364
291.573
290.789
290.012
289.241
288.478
287.722
286.973
286.233
285.5
284.775
284.058
283.349
)
;

boundaryField
{
    left
    {
        type            fixedGradient;
        gradient        uniform 500;
    }
    right
    {
        type            uniformFixedValue;
        uniformValue    
        {
            type            sine;
            amplitude       
            {
                type            constant;
                value           20;
            }
            frequency       1.1574e-05;
            start           0;
            level           
            {
                type            constant;
                value           293;
            }
        }
        value           uniform 282.999;
    }
    frontAndBack
    {
        type            empty;
    }
    top_bottom
    {
        type            zeroGradient;
    }
}


// ************************************************************************* //
