/*--------------------------------*- C++ -*----------------------------------*\
  =========                 |
  \\      /  F ield         | OpenFOAM: The Open Source CFD Toolbox
   \\    /   O peration     | Website:  https://openfoam.org
    \\  /    A nd           | Version:  9
     \\/     M anipulation  |
\*---------------------------------------------------------------------------*/
FoamFile
{
    format      ascii;
    class       volScalarField;
    location    "79200";
    object      T_0;
}
// * * * * * * * * * * * * * * * * * * * * * * * * * * * * * * * * * * * * * //

dimensions      [0 0 0 1 0 0 0];

internalField   nonuniform List<scalar> 
100
(
373.943
372.943
371.944
370.946
369.948
368.95
367.953
366.957
365.961
364.966
363.971
362.977
361.983
360.99
359.997
359.005
358.014
357.024
356.034
355.045
354.056
353.068
352.081
351.095
350.11
349.125
348.142
347.159
346.177
345.196
344.216
343.238
342.26
341.283
340.308
339.334
338.361
337.389
336.419
335.45
334.483
333.517
332.553
331.59
330.629
329.67
328.712
327.756
326.803
325.851
324.901
323.954
323.008
322.065
321.124
320.186
319.25
318.317
317.387
316.459
315.534
314.612
313.693
312.777
311.865
310.956
310.05
309.147
308.249
307.354
306.463
305.576
304.693
303.815
302.94
302.07
301.205
300.345
299.489
298.638
297.793
296.952
296.118
295.288
294.465
293.647
292.835
292.03
291.23
290.438
289.652
288.872
288.1
287.335
286.577
285.827
285.084
284.349
283.623
282.904
)
;

boundaryField
{
    left
    {
        type            fixedGradient;
        gradient        uniform 500;
    }
    right
    {
        type            uniformFixedValue;
        uniformValue    
        {
            type            sine;
            amplitude       
            {
                type            constant;
                value           20;
            }
            frequency       1.1574e-05;
            start           0;
            level           
            {
                type            constant;
                value           293;
            }
        }
        value           uniform 282.549;
    }
    frontAndBack
    {
        type            empty;
    }
    top_bottom
    {
        type            zeroGradient;
    }
}


// ************************************************************************* //
