/*--------------------------------*- C++ -*----------------------------------*\
  =========                 |
  \\      /  F ield         | OpenFOAM: The Open Source CFD Toolbox
   \\    /   O peration     | Website:  https://openfoam.org
    \\  /    A nd           | Version:  9
     \\/     M anipulation  |
\*---------------------------------------------------------------------------*/
FoamFile
{
    format      ascii;
    class       volScalarField;
    location    "46800";
    object      ddt0(T);
}
// * * * * * * * * * * * * * * * * * * * * * * * * * * * * * * * * * * * * * //

dimensions      [0 0 -1 1 0 0 0];

internalField   nonuniform List<scalar> 
100
(
0.00115235
0.00115173
0.00115048
0.00114862
0.00114613
0.00114302
0.00113929
0.00113494
0.00112996
0.00112438
0.00111817
0.00111135
0.00110391
0.00109585
0.00108719
0.00107792
0.00106803
0.00105754
0.00104644
0.00103474
0.00102244
0.00100955
0.000996051
0.000981962
0.000967283
0.000952016
0.000936163
0.000919728
0.000902715
0.000885126
0.000866965
0.000848236
0.000828943
0.000809088
0.000788677
0.000767713
0.000746202
0.000724146
0.000701552
0.000678423
0.000654765
0.000630583
0.000605882
0.000580667
0.000554945
0.00052872
0.000501999
0.000474787
0.000447092
0.000418919
0.000390274
0.000361166
0.000331601
0.000301585
0.000271127
0.000240234
0.000208913
0.000177173
0.000145021
0.000112466
7.95171e-05
4.61822e-05
1.24706e-05
-2.16086e-05
-5.6046e-05
-9.08319e-05
-0.000125956
-0.00016141
-0.000197181
-0.00023326
-0.000269636
-0.000306298
-0.000343235
-0.000380434
-0.000417885
-0.000455575
-0.000493491
-0.000531622
-0.000569955
-0.000608476
-0.000647172
-0.000686028
-0.000725033
-0.00076417
-0.000803426
-0.000842785
-0.000882233
-0.000921753
-0.000961332
-0.00100095
-0.0010406
-0.00108025
-0.00111989
-0.00115951
-0.00119908
-0.00123859
-0.00127803
-0.00131736
-0.00135657
-0.00139565
)
;

boundaryField
{
    left
    {
        type            calculated;
        value           uniform 0.00115235;
    }
    right
    {
        type            calculated;
        value           uniform -0.00141511;
    }
    frontAndBack
    {
        type            empty;
    }
    top_bottom
    {
        type            calculated;
        value           nonuniform List<scalar> 
200
(
0.00115235
0.00115173
0.00115048
0.00114862
0.00114613
0.00114302
0.00113929
0.00113494
0.00112996
0.00112438
0.00111817
0.00111135
0.00110391
0.00109585
0.00108719
0.00107792
0.00106803
0.00105754
0.00104644
0.00103474
0.00102244
0.00100955
0.000996051
0.000981962
0.000967283
0.000952016
0.000936163
0.000919728
0.000902715
0.000885126
0.000866965
0.000848236
0.000828943
0.000809088
0.000788677
0.000767713
0.000746202
0.000724146
0.000701552
0.000678423
0.000654765
0.000630583
0.000605882
0.000580667
0.000554945
0.00052872
0.000501999
0.000474787
0.000447092
0.000418919
0.000390274
0.000361166
0.000331601
0.000301585
0.000271127
0.000240234
0.000208913
0.000177173
0.000145021
0.000112466
7.95171e-05
4.61822e-05
1.24706e-05
-2.16086e-05
-5.6046e-05
-9.08319e-05
-0.000125956
-0.00016141
-0.000197181
-0.00023326
-0.000269636
-0.000306298
-0.000343235
-0.000380434
-0.000417885
-0.000455575
-0.000493491
-0.000531622
-0.000569955
-0.000608476
-0.000647172
-0.000686028
-0.000725033
-0.00076417
-0.000803426
-0.000842785
-0.000882233
-0.000921753
-0.000961332
-0.00100095
-0.0010406
-0.00108025
-0.00111989
-0.00115951
-0.00119908
-0.00123859
-0.00127803
-0.00131736
-0.00135657
-0.00139565
0.00115235
0.00115173
0.00115048
0.00114862
0.00114613
0.00114302
0.00113929
0.00113494
0.00112996
0.00112438
0.00111817
0.00111135
0.00110391
0.00109585
0.00108719
0.00107792
0.00106803
0.00105754
0.00104644
0.00103474
0.00102244
0.00100955
0.000996051
0.000981962
0.000967283
0.000952016
0.000936163
0.000919728
0.000902715
0.000885126
0.000866965
0.000848236
0.000828943
0.000809088
0.000788677
0.000767713
0.000746202
0.000724146
0.000701552
0.000678423
0.000654765
0.000630583
0.000605882
0.000580667
0.000554945
0.00052872
0.000501999
0.000474787
0.000447092
0.000418919
0.000390274
0.000361166
0.000331601
0.000301585
0.000271127
0.000240234
0.000208913
0.000177173
0.000145021
0.000112466
7.95171e-05
4.61822e-05
1.24706e-05
-2.16086e-05
-5.6046e-05
-9.08319e-05
-0.000125956
-0.00016141
-0.000197181
-0.00023326
-0.000269636
-0.000306298
-0.000343235
-0.000380434
-0.000417885
-0.000455575
-0.000493491
-0.000531622
-0.000569955
-0.000608476
-0.000647172
-0.000686028
-0.000725033
-0.00076417
-0.000803426
-0.000842785
-0.000882233
-0.000921753
-0.000961332
-0.00100095
-0.0010406
-0.00108025
-0.00111989
-0.00115951
-0.00119908
-0.00123859
-0.00127803
-0.00131736
-0.00135657
-0.00139565
)
;
    }
}


// ************************************************************************* //
