/*--------------------------------*- C++ -*----------------------------------*\
  =========                 |
  \\      /  F ield         | OpenFOAM: The Open Source CFD Toolbox
   \\    /   O peration     | Website:  https://openfoam.org
    \\  /    A nd           | Version:  9
     \\/     M anipulation  |
\*---------------------------------------------------------------------------*/
FoamFile
{
    format      ascii;
    class       volScalarField;
    location    "46800";
    object      gradTx;
}
// * * * * * * * * * * * * * * * * * * * * * * * * * * * * * * * * * * * * * //

dimensions      [0 -1 0 1 0 0 0];

internalField   nonuniform List<scalar> 
100
(
-498.069
-494.208
-490.35
-486.497
-482.652
-478.816
-474.992
-471.182
-467.388
-463.612
-459.856
-456.122
-452.413
-448.729
-445.075
-441.451
-437.86
-434.304
-430.784
-427.304
-423.864
-420.467
-417.116
-413.811
-410.556
-407.352
-404.201
-401.104
-398.065
-395.085
-392.166
-389.31
-386.519
-383.795
-381.139
-378.554
-376.041
-373.603
-371.24
-368.956
-366.751
-364.628
-362.588
-360.633
-358.765
-356.986
-355.297
-353.699
-352.195
-350.787
-349.475
-348.261
-347.147
-346.135
-345.225
-344.42
-343.721
-343.129
-342.645
-342.272
-342.01
-341.861
-341.826
-341.905
-342.102
-342.415
-342.848
-343.4
-344.074
-344.869
-345.787
-346.829
-347.996
-349.288
-350.708
-352.254
-353.929
-355.732
-357.665
-359.728
-361.921
-364.246
-366.703
-369.291
-372.012
-374.866
-377.853
-380.974
-384.227
-387.615
-391.136
-394.791
-398.579
-402.501
-406.556
-410.744
-415.065
-419.519
-424.104
-428.821
)
;

boundaryField
{
    left
    {
        type            calculated;
        value           uniform -500;
    }
    right
    {
        type            calculated;
        value           uniform -431.212;
    }
    frontAndBack
    {
        type            empty;
    }
    top_bottom
    {
        type            calculated;
        value           nonuniform List<scalar> 
200
(
-498.069
-494.208
-490.35
-486.497
-482.652
-478.816
-474.992
-471.182
-467.388
-463.612
-459.856
-456.122
-452.413
-448.729
-445.075
-441.451
-437.86
-434.304
-430.784
-427.304
-423.864
-420.467
-417.116
-413.811
-410.556
-407.352
-404.201
-401.104
-398.065
-395.085
-392.166
-389.31
-386.519
-383.795
-381.139
-378.554
-376.041
-373.603
-371.24
-368.956
-366.751
-364.628
-362.588
-360.633
-358.765
-356.986
-355.297
-353.699
-352.195
-350.787
-349.475
-348.261
-347.147
-346.135
-345.225
-344.42
-343.721
-343.129
-342.645
-342.272
-342.01
-341.861
-341.826
-341.905
-342.102
-342.415
-342.848
-343.4
-344.074
-344.869
-345.787
-346.829
-347.996
-349.288
-350.708
-352.254
-353.929
-355.732
-357.665
-359.728
-361.921
-364.246
-366.703
-369.291
-372.012
-374.866
-377.853
-380.974
-384.227
-387.615
-391.136
-394.791
-398.579
-402.501
-406.556
-410.744
-415.065
-419.519
-424.104
-428.821
-498.069
-494.208
-490.35
-486.497
-482.652
-478.816
-474.992
-471.182
-467.388
-463.612
-459.856
-456.122
-452.413
-448.729
-445.075
-441.451
-437.86
-434.304
-430.784
-427.304
-423.864
-420.467
-417.116
-413.811
-410.556
-407.352
-404.201
-401.104
-398.065
-395.085
-392.166
-389.31
-386.519
-383.795
-381.139
-378.554
-376.041
-373.603
-371.24
-368.956
-366.751
-364.628
-362.588
-360.633
-358.765
-356.986
-355.297
-353.699
-352.195
-350.787
-349.475
-348.261
-347.147
-346.135
-345.225
-344.42
-343.721
-343.129
-342.645
-342.272
-342.01
-341.861
-341.826
-341.905
-342.102
-342.415
-342.848
-343.4
-344.074
-344.869
-345.787
-346.829
-347.996
-349.288
-350.708
-352.254
-353.929
-355.732
-357.665
-359.728
-361.921
-364.246
-366.703
-369.291
-372.012
-374.866
-377.853
-380.974
-384.227
-387.615
-391.136
-394.791
-398.579
-402.501
-406.556
-410.744
-415.065
-419.519
-424.104
-428.821
)
;
    }
}


// ************************************************************************* //
