/*--------------------------------*- C++ -*----------------------------------*\
  =========                 |
  \\      /  F ield         | OpenFOAM: The Open Source CFD Toolbox
   \\    /   O peration     | Website:  https://openfoam.org
    \\  /    A nd           | Version:  9
     \\/     M anipulation  |
\*---------------------------------------------------------------------------*/
FoamFile
{
    format      ascii;
    class       volScalarField;
    location    "46800";
    object      T;
}
// * * * * * * * * * * * * * * * * * * * * * * * * * * * * * * * * * * * * * //

dimensions      [0 0 0 1 0 0 0];

internalField   nonuniform List<scalar> 
100
(
365.22
364.228
363.243
362.267
361.297
360.336
359.382
358.436
357.497
356.566
355.643
354.727
353.819
352.917
352.024
351.137
350.258
349.386
348.521
347.663
346.811
345.967
345.13
344.299
343.474
342.656
341.845
341.04
340.24
339.447
338.66
337.879
337.103
336.333
335.568
334.808
334.053
333.304
332.559
331.819
331.083
330.352
329.625
328.902
328.182
327.466
326.754
326.045
325.339
324.637
323.936
323.239
322.543
321.85
321.159
320.469
319.781
319.094
318.409
317.724
317.039
316.356
315.672
314.988
314.304
313.62
312.935
312.249
311.561
310.872
310.182
309.489
308.794
308.097
307.397
306.694
305.988
305.279
304.565
303.848
303.126
302.4
301.669
300.933
300.192
299.445
298.693
297.934
297.169
296.397
295.618
294.832
294.039
293.238
292.429
291.612
290.786
289.952
289.108
288.255
)
;

boundaryField
{
    left
    {
        type            fixedGradient;
        gradient        uniform 500;
    }
    right
    {
        type            uniformFixedValue;
        uniformValue    
        {
            type            sine;
            amplitude       
            {
                type            constant;
                value           20;
            }
            frequency       1.1574e-05;
            start           0;
            level           
            {
                type            constant;
                value           293;
            }
        }
        value           uniform 287.824;
    }
    frontAndBack
    {
        type            empty;
    }
    top_bottom
    {
        type            zeroGradient;
    }
}


// ************************************************************************* //
