/*--------------------------------*- C++ -*----------------------------------*\
  =========                 |
  \\      /  F ield         | OpenFOAM: The Open Source CFD Toolbox
   \\    /   O peration     | Website:  https://openfoam.org
    \\  /    A nd           | Version:  9
     \\/     M anipulation  |
\*---------------------------------------------------------------------------*/
FoamFile
{
    format      ascii;
    class       volScalarField;
    location    "46800";
    object      T_0;
}
// * * * * * * * * * * * * * * * * * * * * * * * * * * * * * * * * * * * * * //

dimensions      [0 0 0 1 0 0 0];

internalField   nonuniform List<scalar> 
100
(
364.812
363.82
362.836
361.86
360.892
359.931
358.979
358.034
357.097
356.168
355.247
354.334
353.428
352.53
351.639
350.756
349.88
349.012
348.15
347.297
346.45
345.61
344.777
343.952
343.132
342.32
341.514
340.715
339.922
339.135
338.354
337.579
336.811
336.047
335.29
334.538
333.791
333.049
332.312
331.58
330.853
330.131
329.412
328.698
327.988
327.282
326.579
325.88
325.184
324.491
323.801
323.114
322.429
321.746
321.066
320.387
319.71
319.035
318.361
317.687
317.015
316.343
315.671
315
314.328
313.656
312.984
312.31
311.635
310.959
310.282
309.602
308.921
308.237
307.55
306.861
306.168
305.472
304.772
304.069
303.361
302.649
301.932
301.21
300.482
299.75
299.011
298.266
297.515
296.758
295.993
295.221
294.442
293.655
292.86
292.057
291.245
290.424
289.595
288.756
)
;

boundaryField
{
    left
    {
        type            fixedGradient;
        gradient        uniform 500;
    }
    right
    {
        type            uniformFixedValue;
        uniformValue    
        {
            type            sine;
            amplitude       
            {
                type            constant;
                value           20;
            }
            frequency       1.1574e-05;
            start           0;
            level           
            {
                type            constant;
                value           293;
            }
        }
        value           uniform 288.332;
    }
    frontAndBack
    {
        type            empty;
    }
    top_bottom
    {
        type            zeroGradient;
    }
}


// ************************************************************************* //
