/*--------------------------------*- C++ -*----------------------------------*\
  =========                 |
  \\      /  F ield         | OpenFOAM: The Open Source CFD Toolbox
   \\    /   O peration     | Website:  https://openfoam.org
    \\  /    A nd           | Version:  9
     \\/     M anipulation  |
\*---------------------------------------------------------------------------*/
FoamFile
{
    format      ascii;
    class       volScalarField;
    location    "118800";
    object      ddt0(T);
}
// * * * * * * * * * * * * * * * * * * * * * * * * * * * * * * * * * * * * * //

dimensions      [0 0 -1 1 0 0 0];

internalField   nonuniform List<scalar> 
100
(
0.00055561
0.000555375
0.000554904
0.000554198
0.000553256
0.000552078
0.000550663
0.00054901
0.000547119
0.000544988
0.000542618
0.000540006
0.000537152
0.000534054
0.000530711
0.000527122
0.000523284
0.000519196
0.000514856
0.000510263
0.000505414
0.000500307
0.00049494
0.000489311
0.000483416
0.000477255
0.000470823
0.000464119
0.00045714
0.000449882
0.000442343
0.000434519
0.000426409
0.000418007
0.000409312
0.000400319
0.000391026
0.000381428
0.000371522
0.000361305
0.000350772
0.000339921
0.000328746
0.000317245
0.000305412
0.000293244
0.000280738
0.000267888
0.000254691
0.000241142
0.000227237
0.000212971
0.000198341
0.000183342
0.000167969
0.000152219
0.000136085
0.000119565
0.000102654
8.53461e-05
6.76379e-05
4.95246e-05
3.10017e-05
1.20646e-05
-7.29119e-06
-2.70702e-05
-4.72769e-05
-6.79159e-05
-8.89914e-05
-0.000110508
-0.00013247
-0.000154882
-0.000177748
-0.000201072
-0.000224859
-0.000249113
-0.000273837
-0.000299036
-0.000324713
-0.000350873
-0.000377519
-0.000404655
-0.000432284
-0.00046041
-0.000489036
-0.000518165
-0.0005478
-0.000577945
-0.000608602
-0.000639773
-0.000671461
-0.000703669
-0.000736398
-0.000769651
-0.000803428
-0.000837733
-0.000872566
-0.000907928
-0.00094382
-0.000980244
)
;

boundaryField
{
    left
    {
        type            calculated;
        value           uniform 0.00055561;
    }
    right
    {
        type            calculated;
        value           uniform -0.000998721;
    }
    frontAndBack
    {
        type            empty;
    }
    top_bottom
    {
        type            calculated;
        value           nonuniform List<scalar> 
200
(
0.00055561
0.000555375
0.000554904
0.000554198
0.000553256
0.000552078
0.000550663
0.00054901
0.000547119
0.000544988
0.000542618
0.000540006
0.000537152
0.000534054
0.000530711
0.000527122
0.000523284
0.000519196
0.000514856
0.000510263
0.000505414
0.000500307
0.00049494
0.000489311
0.000483416
0.000477255
0.000470823
0.000464119
0.00045714
0.000449882
0.000442343
0.000434519
0.000426409
0.000418007
0.000409312
0.000400319
0.000391026
0.000381428
0.000371522
0.000361305
0.000350772
0.000339921
0.000328746
0.000317245
0.000305412
0.000293244
0.000280738
0.000267888
0.000254691
0.000241142
0.000227237
0.000212971
0.000198341
0.000183342
0.000167969
0.000152219
0.000136085
0.000119565
0.000102654
8.53461e-05
6.76379e-05
4.95246e-05
3.10017e-05
1.20646e-05
-7.29119e-06
-2.70702e-05
-4.72769e-05
-6.79159e-05
-8.89914e-05
-0.000110508
-0.00013247
-0.000154882
-0.000177748
-0.000201072
-0.000224859
-0.000249113
-0.000273837
-0.000299036
-0.000324713
-0.000350873
-0.000377519
-0.000404655
-0.000432284
-0.00046041
-0.000489036
-0.000518165
-0.0005478
-0.000577945
-0.000608602
-0.000639773
-0.000671461
-0.000703669
-0.000736398
-0.000769651
-0.000803428
-0.000837733
-0.000872566
-0.000907928
-0.00094382
-0.000980244
0.00055561
0.000555375
0.000554904
0.000554198
0.000553256
0.000552078
0.000550663
0.00054901
0.000547119
0.000544988
0.000542618
0.000540006
0.000537152
0.000534054
0.000530711
0.000527122
0.000523284
0.000519196
0.000514856
0.000510263
0.000505414
0.000500307
0.00049494
0.000489311
0.000483416
0.000477255
0.000470823
0.000464119
0.00045714
0.000449882
0.000442343
0.000434519
0.000426409
0.000418007
0.000409312
0.000400319
0.000391026
0.000381428
0.000371522
0.000361305
0.000350772
0.000339921
0.000328746
0.000317245
0.000305412
0.000293244
0.000280738
0.000267888
0.000254691
0.000241142
0.000227237
0.000212971
0.000198341
0.000183342
0.000167969
0.000152219
0.000136085
0.000119565
0.000102654
8.53461e-05
6.76379e-05
4.95246e-05
3.10017e-05
1.20646e-05
-7.29119e-06
-2.70702e-05
-4.72769e-05
-6.79159e-05
-8.89914e-05
-0.000110508
-0.00013247
-0.000154882
-0.000177748
-0.000201072
-0.000224859
-0.000249113
-0.000273837
-0.000299036
-0.000324713
-0.000350873
-0.000377519
-0.000404655
-0.000432284
-0.00046041
-0.000489036
-0.000518165
-0.0005478
-0.000577945
-0.000608602
-0.000639773
-0.000671461
-0.000703669
-0.000736398
-0.000769651
-0.000803428
-0.000837733
-0.000872566
-0.000907928
-0.00094382
-0.000980244
)
;
    }
}


// ************************************************************************* //
