/*--------------------------------*- C++ -*----------------------------------*\
  =========                 |
  \\      /  F ield         | OpenFOAM: The Open Source CFD Toolbox
   \\    /   O peration     | Website:  https://openfoam.org
    \\  /    A nd           | Version:  9
     \\/     M anipulation  |
\*---------------------------------------------------------------------------*/
FoamFile
{
    format      ascii;
    class       volScalarField;
    location    "118800";
    object      gradTx;
}
// * * * * * * * * * * * * * * * * * * * * * * * * * * * * * * * * * * * * * //

dimensions      [0 -1 0 1 0 0 0];

internalField   nonuniform List<scalar> 
100
(
-499.064
-497.191
-495.32
-493.45
-491.584
-489.722
-487.864
-486.011
-484.165
-482.325
-480.494
-478.672
-476.859
-475.057
-473.266
-471.487
-469.721
-467.97
-466.233
-464.512
-462.807
-461.12
-459.452
-457.803
-456.174
-454.567
-452.982
-451.419
-449.881
-448.368
-446.881
-445.421
-443.99
-442.587
-441.214
-439.872
-438.563
-437.286
-436.044
-434.838
-433.667
-432.535
-431.441
-430.386
-429.373
-428.402
-427.474
-426.59
-425.752
-424.961
-424.219
-423.525
-422.882
-422.291
-421.753
-421.27
-420.842
-420.471
-420.159
-419.906
-419.715
-419.586
-419.522
-419.522
-419.59
-419.726
-419.931
-420.208
-420.557
-420.98
-421.48
-422.056
-422.711
-423.447
-424.265
-425.166
-426.152
-427.225
-428.387
-429.638
-430.981
-432.418
-433.949
-435.577
-437.304
-439.13
-441.059
-443.091
-445.228
-447.473
-449.826
-452.289
-454.865
-457.555
-460.361
-463.284
-466.327
-469.491
-472.778
-476.189
)
;

boundaryField
{
    left
    {
        type            calculated;
        value           uniform -500;
    }
    right
    {
        type            calculated;
        value           uniform -477.926;
    }
    frontAndBack
    {
        type            empty;
    }
    top_bottom
    {
        type            calculated;
        value           nonuniform List<scalar> 
200
(
-499.064
-497.191
-495.32
-493.45
-491.584
-489.722
-487.864
-486.011
-484.165
-482.325
-480.494
-478.672
-476.859
-475.057
-473.266
-471.487
-469.721
-467.97
-466.233
-464.512
-462.807
-461.12
-459.452
-457.803
-456.174
-454.567
-452.982
-451.419
-449.881
-448.368
-446.881
-445.421
-443.99
-442.587
-441.214
-439.872
-438.563
-437.286
-436.044
-434.838
-433.667
-432.535
-431.441
-430.386
-429.373
-428.402
-427.474
-426.59
-425.752
-424.961
-424.219
-423.525
-422.882
-422.291
-421.753
-421.27
-420.842
-420.471
-420.159
-419.906
-419.715
-419.586
-419.522
-419.522
-419.59
-419.726
-419.931
-420.208
-420.557
-420.98
-421.48
-422.056
-422.711
-423.447
-424.265
-425.166
-426.152
-427.225
-428.387
-429.638
-430.981
-432.418
-433.949
-435.577
-437.304
-439.13
-441.059
-443.091
-445.228
-447.473
-449.826
-452.289
-454.865
-457.555
-460.361
-463.284
-466.327
-469.491
-472.778
-476.189
-499.064
-497.191
-495.32
-493.45
-491.584
-489.722
-487.864
-486.011
-484.165
-482.325
-480.494
-478.672
-476.859
-475.057
-473.266
-471.487
-469.721
-467.97
-466.233
-464.512
-462.807
-461.12
-459.452
-457.803
-456.174
-454.567
-452.982
-451.419
-449.881
-448.368
-446.881
-445.421
-443.99
-442.587
-441.214
-439.872
-438.563
-437.286
-436.044
-434.838
-433.667
-432.535
-431.441
-430.386
-429.373
-428.402
-427.474
-426.59
-425.752
-424.961
-424.219
-423.525
-422.882
-422.291
-421.753
-421.27
-420.842
-420.471
-420.159
-419.906
-419.715
-419.586
-419.522
-419.522
-419.59
-419.726
-419.931
-420.208
-420.557
-420.98
-421.48
-422.056
-422.711
-423.447
-424.265
-425.166
-426.152
-427.225
-428.387
-429.638
-430.981
-432.418
-433.949
-435.577
-437.304
-439.13
-441.059
-443.091
-445.228
-447.473
-449.826
-452.289
-454.865
-457.555
-460.361
-463.284
-466.327
-469.491
-472.778
-476.189
)
;
    }
}


// ************************************************************************* //
