/*--------------------------------*- C++ -*----------------------------------*\
  =========                 |
  \\      /  F ield         | OpenFOAM: The Open Source CFD Toolbox
   \\    /   O peration     | Website:  https://openfoam.org
    \\  /    A nd           | Version:  9
     \\/     M anipulation  |
\*---------------------------------------------------------------------------*/
FoamFile
{
    format      ascii;
    class       volScalarField;
    location    "118800";
    object      T;
}
// * * * * * * * * * * * * * * * * * * * * * * * * * * * * * * * * * * * * * //

dimensions      [0 0 0 1 0 0 0];

internalField   nonuniform List<scalar> 
100
(
395.761
394.765
393.772
392.784
391.799
390.817
389.84
388.866
387.896
386.929
385.966
385.007
384.052
383.1
382.152
381.207
380.266
379.328
378.394
377.463
376.536
375.612
374.691
373.774
372.86
371.949
371.042
370.137
369.236
368.338
367.443
366.55
365.661
364.774
363.891
363.009
362.131
361.255
360.382
359.511
358.643
357.776
356.912
356.051
355.191
354.333
353.477
352.623
351.771
350.92
350.071
349.223
348.377
347.532
346.688
345.845
345.003
344.161
343.321
342.481
341.641
340.802
339.963
339.124
338.285
337.445
336.606
335.766
334.925
334.084
333.241
332.398
331.553
330.707
329.859
329.01
328.158
327.305
326.45
325.592
324.731
323.868
323.001
322.132
321.259
320.383
319.502
318.618
317.73
316.837
315.94
315.038
314.131
313.219
312.301
311.377
310.448
309.512
308.57
307.621
)
;

boundaryField
{
    left
    {
        type            fixedGradient;
        gradient        uniform 500;
    }
    right
    {
        type            uniformFixedValue;
        uniformValue    
        {
            type            sine;
            amplitude       
            {
                type            constant;
                value           20;
            }
            frequency       1.1574e-05;
            start           0;
            level           
            {
                type            constant;
                value           293;
            }
        }
        value           uniform 307.143;
    }
    frontAndBack
    {
        type            empty;
    }
    top_bottom
    {
        type            zeroGradient;
    }
}


// ************************************************************************* //
