/*--------------------------------*- C++ -*----------------------------------*\
  =========                 |
  \\      /  F ield         | OpenFOAM: The Open Source CFD Toolbox
   \\    /   O peration     | Website:  https://openfoam.org
    \\  /    A nd           | Version:  9
     \\/     M anipulation  |
\*---------------------------------------------------------------------------*/
FoamFile
{
    format      ascii;
    class       volScalarField;
    location    "118800";
    object      T_0;
}
// * * * * * * * * * * * * * * * * * * * * * * * * * * * * * * * * * * * * * //

dimensions      [0 0 0 1 0 0 0];

internalField   nonuniform List<scalar> 
100
(
395.564
394.568
393.575
392.587
391.602
390.621
389.644
388.671
387.701
386.736
385.774
384.816
383.861
382.91
381.963
381.02
380.08
379.144
378.211
377.282
376.357
375.435
374.516
373.601
372.689
371.78
370.875
369.973
369.075
368.179
367.286
366.397
365.511
364.627
363.746
362.869
361.994
361.121
360.252
359.384
358.52
357.658
356.798
355.94
355.085
354.231
353.38
352.531
351.683
350.837
349.993
349.151
348.31
347.47
346.632
345.794
344.958
344.123
343.288
342.454
341.621
340.789
339.956
339.124
338.292
337.46
336.628
335.795
334.962
334.128
333.294
332.458
331.622
330.784
329.945
329.105
328.262
327.418
326.572
325.723
324.872
324.019
323.162
322.303
321.441
320.575
319.705
318.832
317.955
317.073
316.188
315.297
314.402
313.502
312.596
311.685
310.768
309.845
308.915
307.98
)
;

boundaryField
{
    left
    {
        type            fixedGradient;
        gradient        uniform 500;
    }
    right
    {
        type            uniformFixedValue;
        uniformValue    
        {
            type            sine;
            amplitude       
            {
                type            constant;
                value           20;
            }
            frequency       1.1574e-05;
            start           0;
            level           
            {
                type            constant;
                value           293;
            }
        }
        value           uniform 307.508;
    }
    frontAndBack
    {
        type            empty;
    }
    top_bottom
    {
        type            zeroGradient;
    }
}


// ************************************************************************* //
