/*--------------------------------*- C++ -*----------------------------------*\
  =========                 |
  \\      /  F ield         | OpenFOAM: The Open Source CFD Toolbox
   \\    /   O peration     | Website:  https://openfoam.org
    \\  /    A nd           | Version:  9
     \\/     M anipulation  |
\*---------------------------------------------------------------------------*/
FoamFile
{
    format      ascii;
    class       volScalarField;
    location    "72000";
    object      ddt0(T);
}
// * * * * * * * * * * * * * * * * * * * * * * * * * * * * * * * * * * * * * //

dimensions      [0 0 -1 1 0 0 0];

internalField   nonuniform List<scalar> 
100
(
-2.70606e-05
-2.70455e-05
-2.70151e-05
-2.69692e-05
-2.69072e-05
-2.68284e-05
-2.6732e-05
-2.66169e-05
-2.64819e-05
-2.63257e-05
-2.61468e-05
-2.59434e-05
-2.57138e-05
-2.54557e-05
-2.51671e-05
-2.48456e-05
-2.44886e-05
-2.40934e-05
-2.36572e-05
-2.31769e-05
-2.26494e-05
-2.20713e-05
-2.1439e-05
-2.07489e-05
-1.99971e-05
-1.91797e-05
-1.82925e-05
-1.73312e-05
-1.62914e-05
-1.51683e-05
-1.39573e-05
-1.26534e-05
-1.12515e-05
-9.74652e-06
-8.13298e-06
-6.40541e-06
-4.55816e-06
-2.58543e-06
-4.81301e-07
1.7603e-06
4.14558e-06
6.68087e-06
9.37263e-06
1.22275e-05
1.52521e-05
1.84534e-05
2.18383e-05
2.54139e-05
2.91874e-05
3.31661e-05
3.73575e-05
4.17691e-05
4.64085e-05
5.12836e-05
5.64021e-05
6.1772e-05
6.74013e-05
7.32982e-05
7.9471e-05
8.59278e-05
9.2677e-05
9.97273e-05
0.000107087
0.000114765
0.000122769
0.000131109
0.000139793
0.000148831
0.00015823
0.000168
0.00017815
0.000188689
0.000199626
0.00021097
0.000222729
0.000234914
0.000247533
0.000260596
0.00027411
0.000288087
0.000302534
0.00031746
0.000332875
0.000348788
0.000365207
0.000382142
0.000399602
0.000417594
0.000436129
0.000455214
0.000474858
0.000495071
0.000515859
0.000537232
0.000559197
0.000581763
0.000604938
0.000628729
0.000653145
0.000678192
)
;

boundaryField
{
    left
    {
        type            calculated;
        value           uniform -2.70606e-05;
    }
    right
    {
        type            calculated;
        value           uniform 0.000691035;
    }
    frontAndBack
    {
        type            empty;
    }
    top_bottom
    {
        type            calculated;
        value           nonuniform List<scalar> 
200
(
-2.70606e-05
-2.70455e-05
-2.70151e-05
-2.69692e-05
-2.69072e-05
-2.68284e-05
-2.6732e-05
-2.66169e-05
-2.64819e-05
-2.63257e-05
-2.61468e-05
-2.59434e-05
-2.57138e-05
-2.54557e-05
-2.51671e-05
-2.48456e-05
-2.44886e-05
-2.40934e-05
-2.36572e-05
-2.31769e-05
-2.26494e-05
-2.20713e-05
-2.1439e-05
-2.07489e-05
-1.99971e-05
-1.91797e-05
-1.82925e-05
-1.73312e-05
-1.62914e-05
-1.51683e-05
-1.39573e-05
-1.26534e-05
-1.12515e-05
-9.74652e-06
-8.13298e-06
-6.40541e-06
-4.55816e-06
-2.58543e-06
-4.81301e-07
1.7603e-06
4.14558e-06
6.68087e-06
9.37263e-06
1.22275e-05
1.52521e-05
1.84534e-05
2.18383e-05
2.54139e-05
2.91874e-05
3.31661e-05
3.73575e-05
4.17691e-05
4.64085e-05
5.12836e-05
5.64021e-05
6.1772e-05
6.74013e-05
7.32982e-05
7.9471e-05
8.59278e-05
9.2677e-05
9.97273e-05
0.000107087
0.000114765
0.000122769
0.000131109
0.000139793
0.000148831
0.00015823
0.000168
0.00017815
0.000188689
0.000199626
0.00021097
0.000222729
0.000234914
0.000247533
0.000260596
0.00027411
0.000288087
0.000302534
0.00031746
0.000332875
0.000348788
0.000365207
0.000382142
0.000399602
0.000417594
0.000436129
0.000455214
0.000474858
0.000495071
0.000515859
0.000537232
0.000559197
0.000581763
0.000604938
0.000628729
0.000653145
0.000678192
-2.70606e-05
-2.70455e-05
-2.70151e-05
-2.69692e-05
-2.69072e-05
-2.68284e-05
-2.6732e-05
-2.66169e-05
-2.64819e-05
-2.63257e-05
-2.61468e-05
-2.59434e-05
-2.57138e-05
-2.54557e-05
-2.51671e-05
-2.48456e-05
-2.44886e-05
-2.40934e-05
-2.36572e-05
-2.31769e-05
-2.26494e-05
-2.20713e-05
-2.1439e-05
-2.07489e-05
-1.99971e-05
-1.91797e-05
-1.82925e-05
-1.73312e-05
-1.62914e-05
-1.51683e-05
-1.39573e-05
-1.26534e-05
-1.12515e-05
-9.74652e-06
-8.13298e-06
-6.40541e-06
-4.55816e-06
-2.58543e-06
-4.81301e-07
1.7603e-06
4.14558e-06
6.68087e-06
9.37263e-06
1.22275e-05
1.52521e-05
1.84534e-05
2.18383e-05
2.54139e-05
2.91874e-05
3.31661e-05
3.73575e-05
4.17691e-05
4.64085e-05
5.12836e-05
5.64021e-05
6.1772e-05
6.74013e-05
7.32982e-05
7.9471e-05
8.59278e-05
9.2677e-05
9.97273e-05
0.000107087
0.000114765
0.000122769
0.000131109
0.000139793
0.000148831
0.00015823
0.000168
0.00017815
0.000188689
0.000199626
0.00021097
0.000222729
0.000234914
0.000247533
0.000260596
0.00027411
0.000288087
0.000302534
0.00031746
0.000332875
0.000348788
0.000365207
0.000382142
0.000399602
0.000417594
0.000436129
0.000455214
0.000474858
0.000495071
0.000515859
0.000537232
0.000559197
0.000581763
0.000604938
0.000628729
0.000653145
0.000678192
)
;
    }
}


// ************************************************************************* //
