/*--------------------------------*- C++ -*----------------------------------*\
  =========                 |
  \\      /  F ield         | OpenFOAM: The Open Source CFD Toolbox
   \\    /   O peration     | Website:  https://openfoam.org
    \\  /    A nd           | Version:  9
     \\/     M anipulation  |
\*---------------------------------------------------------------------------*/
FoamFile
{
    format      ascii;
    class       volScalarField;
    location    "72000";
    object      gradTx;
}
// * * * * * * * * * * * * * * * * * * * * * * * * * * * * * * * * * * * * * //

dimensions      [0 -1 0 1 0 0 0];

internalField   nonuniform List<scalar> 
100
(
-500.045
-500.134
-500.224
-500.313
-500.402
-500.491
-500.579
-500.667
-500.754
-500.84
-500.925
-501.009
-501.093
-501.175
-501.255
-501.334
-501.412
-501.488
-501.561
-501.633
-501.702
-501.769
-501.833
-501.894
-501.952
-502.007
-502.058
-502.104
-502.147
-502.185
-502.218
-502.246
-502.268
-502.285
-502.295
-502.298
-502.294
-502.282
-502.263
-502.235
-502.197
-502.15
-502.093
-502.025
-501.946
-501.855
-501.751
-501.634
-501.503
-501.357
-501.196
-501.019
-500.824
-500.612
-500.382
-500.131
-499.861
-499.569
-499.255
-498.917
-498.555
-498.168
-497.755
-497.314
-496.845
-496.346
-495.815
-495.253
-494.658
-494.027
-493.361
-492.658
-491.916
-491.134
-490.31
-489.444
-488.533
-487.576
-486.572
-485.519
-484.416
-483.26
-482.05
-480.784
-479.462
-478.08
-476.637
-475.132
-473.562
-471.926
-470.221
-468.447
-466.6
-464.679
-462.682
-460.607
-458.451
-456.213
-453.891
-451.482
)
;

boundaryField
{
    left
    {
        type            calculated;
        value           uniform -500;
    }
    right
    {
        type            calculated;
        value           uniform -450.256;
    }
    frontAndBack
    {
        type            empty;
    }
    top_bottom
    {
        type            calculated;
        value           nonuniform List<scalar> 
200
(
-500.045
-500.134
-500.224
-500.313
-500.402
-500.491
-500.579
-500.667
-500.754
-500.84
-500.925
-501.009
-501.093
-501.175
-501.255
-501.334
-501.412
-501.488
-501.561
-501.633
-501.702
-501.769
-501.833
-501.894
-501.952
-502.007
-502.058
-502.104
-502.147
-502.185
-502.218
-502.246
-502.268
-502.285
-502.295
-502.298
-502.294
-502.282
-502.263
-502.235
-502.197
-502.15
-502.093
-502.025
-501.946
-501.855
-501.751
-501.634
-501.503
-501.357
-501.196
-501.019
-500.824
-500.612
-500.382
-500.131
-499.861
-499.569
-499.255
-498.917
-498.555
-498.168
-497.755
-497.314
-496.845
-496.346
-495.815
-495.253
-494.658
-494.027
-493.361
-492.658
-491.916
-491.134
-490.31
-489.444
-488.533
-487.576
-486.572
-485.519
-484.416
-483.26
-482.05
-480.784
-479.462
-478.08
-476.637
-475.132
-473.562
-471.926
-470.221
-468.447
-466.6
-464.679
-462.682
-460.607
-458.451
-456.213
-453.891
-451.482
-500.045
-500.134
-500.224
-500.313
-500.402
-500.491
-500.579
-500.667
-500.754
-500.84
-500.925
-501.009
-501.093
-501.175
-501.255
-501.334
-501.412
-501.488
-501.561
-501.633
-501.702
-501.769
-501.833
-501.894
-501.952
-502.007
-502.058
-502.104
-502.147
-502.185
-502.218
-502.246
-502.268
-502.285
-502.295
-502.298
-502.294
-502.282
-502.263
-502.235
-502.197
-502.15
-502.093
-502.025
-501.946
-501.855
-501.751
-501.634
-501.503
-501.357
-501.196
-501.019
-500.824
-500.612
-500.382
-500.131
-499.861
-499.569
-499.255
-498.917
-498.555
-498.168
-497.755
-497.314
-496.845
-496.346
-495.815
-495.253
-494.658
-494.027
-493.361
-492.658
-491.916
-491.134
-490.31
-489.444
-488.533
-487.576
-486.572
-485.519
-484.416
-483.26
-482.05
-480.784
-479.462
-478.08
-476.637
-475.132
-473.562
-471.926
-470.221
-468.447
-466.6
-464.679
-462.682
-460.607
-458.451
-456.213
-453.891
-451.482
)
;
    }
}


// ************************************************************************* //
