/*--------------------------------*- C++ -*----------------------------------*\
  =========                 |
  \\      /  F ield         | OpenFOAM: The Open Source CFD Toolbox
   \\    /   O peration     | Website:  https://openfoam.org
    \\  /    A nd           | Version:  9
     \\/     M anipulation  |
\*---------------------------------------------------------------------------*/
FoamFile
{
    format      ascii;
    class       volScalarField;
    location    "72000";
    object      T;
}
// * * * * * * * * * * * * * * * * * * * * * * * * * * * * * * * * * * * * * //

dimensions      [0 0 0 1 0 0 0];

internalField   nonuniform List<scalar> 
100
(
373.86
372.86
371.859
370.859
369.858
368.857
367.856
366.855
365.853
364.852
363.85
362.848
361.846
360.844
359.841
358.839
357.836
356.833
355.83
354.827
353.823
352.82
351.816
350.813
349.809
348.805
347.801
346.797
345.792
344.788
343.784
342.779
341.775
340.77
339.765
338.761
337.756
336.752
335.747
334.743
333.738
332.734
331.73
330.725
329.721
328.718
327.714
326.711
325.708
324.705
323.702
322.7
321.698
320.697
319.696
318.695
317.695
316.696
315.697
314.699
313.701
312.704
311.708
310.713
309.719
308.726
307.734
306.743
305.753
304.764
303.777
302.791
301.806
300.823
299.841
298.862
297.884
296.908
295.933
294.961
293.991
293.024
292.058
291.095
290.135
289.178
288.223
287.271
286.322
285.377
284.435
283.496
282.561
281.63
280.702
279.779
278.86
277.945
277.035
276.129
)
;

boundaryField
{
    left
    {
        type            fixedGradient;
        gradient        uniform 500;
    }
    right
    {
        type            uniformFixedValue;
        uniformValue    
        {
            type            sine;
            amplitude       
            {
                type            constant;
                value           20;
            }
            frequency       1.1574e-05;
            start           0;
            level           
            {
                type            constant;
                value           293;
            }
        }
        value           uniform 275.679;
    }
    frontAndBack
    {
        type            empty;
    }
    top_bottom
    {
        type            zeroGradient;
    }
}


// ************************************************************************* //
