/*--------------------------------*- C++ -*----------------------------------*\
  =========                 |
  \\      /  F ield         | OpenFOAM: The Open Source CFD Toolbox
   \\    /   O peration     | Website:  https://openfoam.org
    \\  /    A nd           | Version:  9
     \\/     M anipulation  |
\*---------------------------------------------------------------------------*/
FoamFile
{
    format      ascii;
    class       volScalarField;
    location    "72000";
    object      T_0;
}
// * * * * * * * * * * * * * * * * * * * * * * * * * * * * * * * * * * * * * //

dimensions      [0 0 0 1 0 0 0];

internalField   nonuniform List<scalar> 
100
(
373.869
372.869
371.869
370.868
369.867
368.866
367.865
366.864
365.863
364.861
363.859
362.857
361.855
360.852
359.85
358.847
357.844
356.841
355.838
354.835
353.831
352.827
351.823
350.819
349.815
348.811
347.806
346.802
345.797
344.792
343.788
342.783
341.777
340.772
339.767
338.762
337.756
336.751
335.746
334.74
333.735
332.73
331.724
330.719
329.714
328.709
327.704
326.699
325.695
324.69
323.686
322.682
321.679
320.675
319.672
318.67
317.668
316.666
315.665
314.664
313.664
312.665
311.666
310.668
309.671
308.675
307.68
306.685
305.692
304.699
303.708
302.718
301.73
300.742
299.757
298.772
297.79
296.809
295.83
294.852
293.877
292.904
291.933
290.964
289.998
289.034
288.073
287.115
286.159
285.207
284.257
283.311
282.369
281.43
280.494
279.563
278.635
277.712
276.793
275.878
)
;

boundaryField
{
    left
    {
        type            fixedGradient;
        gradient        uniform 500;
    }
    right
    {
        type            uniformFixedValue;
        uniformValue    
        {
            type            sine;
            amplitude       
            {
                type            constant;
                value           20;
            }
            frequency       1.1574e-05;
            start           0;
            level           
            {
                type            constant;
                value           293;
            }
        }
        value           uniform 275.423;
    }
    frontAndBack
    {
        type            empty;
    }
    top_bottom
    {
        type            zeroGradient;
    }
}


// ************************************************************************* //
