/*--------------------------------*- C++ -*----------------------------------*\
  =========                 |
  \\      /  F ield         | OpenFOAM: The Open Source CFD Toolbox
   \\    /   O peration     | Website:  https://openfoam.org
    \\  /    A nd           | Version:  9
     \\/     M anipulation  |
\*---------------------------------------------------------------------------*/
FoamFile
{
    format      ascii;
    class       volScalarField;
    location    "154800";
    object      ddt0(T);
}
// * * * * * * * * * * * * * * * * * * * * * * * * * * * * * * * * * * * * * //

dimensions      [0 0 -1 1 0 0 0];

internalField   nonuniform List<scalar> 
100
(
-0.000579679
-0.000579617
-0.000579495
-0.000579311
-0.000579065
-0.000578757
-0.000578385
-0.000577949
-0.000577447
-0.000576879
-0.000576242
-0.000575537
-0.000574759
-0.000573909
-0.000572984
-0.000571981
-0.000570899
-0.000569734
-0.000568486
-0.000567149
-0.000565722
-0.000564202
-0.000562586
-0.000560869
-0.000559049
-0.000557122
-0.000555083
-0.00055293
-0.000550658
-0.000548262
-0.000545739
-0.000543083
-0.000540291
-0.000537357
-0.000534276
-0.000531043
-0.000527653
-0.0005241
-0.000520379
-0.000516484
-0.00051241
-0.00050815
-0.000503699
-0.000499049
-0.000494196
-0.000489131
-0.000483849
-0.000478343
-0.000472605
-0.00046663
-0.000460409
-0.000453936
-0.000447203
-0.000440202
-0.000432927
-0.000425368
-0.000417519
-0.000409371
-0.000400917
-0.000392148
-0.000383055
-0.000373631
-0.000363866
-0.000353753
-0.000343283
-0.000332446
-0.000321234
-0.000309638
-0.000297649
-0.000285257
-0.000272454
-0.00025923
-0.000245575
-0.000231481
-0.000216938
-0.000201936
-0.000186466
-0.000170517
-0.00015408
-0.000137146
-0.000119705
-0.000101746
-8.32594e-05
-6.4236e-05
-4.46654e-05
-2.45376e-05
-3.84273e-06
1.74293e-05
3.92885e-05
6.17448e-05
8.48082e-05
0.000108489
0.000132797
0.000157741
0.000183333
0.000209581
0.000236497
0.000264088
0.000292366
0.000321339
)
;

boundaryField
{
    left
    {
        type            calculated;
        value           uniform -0.000579679;
    }
    right
    {
        type            calculated;
        value           uniform 0.000336179;
    }
    frontAndBack
    {
        type            empty;
    }
    top_bottom
    {
        type            calculated;
        value           nonuniform List<scalar> 
200
(
-0.000579679
-0.000579617
-0.000579495
-0.000579311
-0.000579065
-0.000578757
-0.000578385
-0.000577949
-0.000577447
-0.000576879
-0.000576242
-0.000575537
-0.000574759
-0.000573909
-0.000572984
-0.000571981
-0.000570899
-0.000569734
-0.000568486
-0.000567149
-0.000565722
-0.000564202
-0.000562586
-0.000560869
-0.000559049
-0.000557122
-0.000555083
-0.00055293
-0.000550658
-0.000548262
-0.000545739
-0.000543083
-0.000540291
-0.000537357
-0.000534276
-0.000531043
-0.000527653
-0.0005241
-0.000520379
-0.000516484
-0.00051241
-0.00050815
-0.000503699
-0.000499049
-0.000494196
-0.000489131
-0.000483849
-0.000478343
-0.000472605
-0.00046663
-0.000460409
-0.000453936
-0.000447203
-0.000440202
-0.000432927
-0.000425368
-0.000417519
-0.000409371
-0.000400917
-0.000392148
-0.000383055
-0.000373631
-0.000363866
-0.000353753
-0.000343283
-0.000332446
-0.000321234
-0.000309638
-0.000297649
-0.000285257
-0.000272454
-0.00025923
-0.000245575
-0.000231481
-0.000216938
-0.000201936
-0.000186466
-0.000170517
-0.00015408
-0.000137146
-0.000119705
-0.000101746
-8.32594e-05
-6.4236e-05
-4.46654e-05
-2.45376e-05
-3.84273e-06
1.74293e-05
3.92885e-05
6.17448e-05
8.48082e-05
0.000108489
0.000132797
0.000157741
0.000183333
0.000209581
0.000236497
0.000264088
0.000292366
0.000321339
-0.000579679
-0.000579617
-0.000579495
-0.000579311
-0.000579065
-0.000578757
-0.000578385
-0.000577949
-0.000577447
-0.000576879
-0.000576242
-0.000575537
-0.000574759
-0.000573909
-0.000572984
-0.000571981
-0.000570899
-0.000569734
-0.000568486
-0.000567149
-0.000565722
-0.000564202
-0.000562586
-0.000560869
-0.000559049
-0.000557122
-0.000555083
-0.00055293
-0.000550658
-0.000548262
-0.000545739
-0.000543083
-0.000540291
-0.000537357
-0.000534276
-0.000531043
-0.000527653
-0.0005241
-0.000520379
-0.000516484
-0.00051241
-0.00050815
-0.000503699
-0.000499049
-0.000494196
-0.000489131
-0.000483849
-0.000478343
-0.000472605
-0.00046663
-0.000460409
-0.000453936
-0.000447203
-0.000440202
-0.000432927
-0.000425368
-0.000417519
-0.000409371
-0.000400917
-0.000392148
-0.000383055
-0.000373631
-0.000363866
-0.000353753
-0.000343283
-0.000332446
-0.000321234
-0.000309638
-0.000297649
-0.000285257
-0.000272454
-0.00025923
-0.000245575
-0.000231481
-0.000216938
-0.000201936
-0.000186466
-0.000170517
-0.00015408
-0.000137146
-0.000119705
-0.000101746
-8.32594e-05
-6.4236e-05
-4.46654e-05
-2.45376e-05
-3.84273e-06
1.74293e-05
3.92885e-05
6.17448e-05
8.48082e-05
0.000108489
0.000132797
0.000157741
0.000183333
0.000209581
0.000236497
0.000264088
0.000292366
0.000321339
)
;
    }
}


// ************************************************************************* //
