/*--------------------------------*- C++ -*----------------------------------*\
  =========                 |
  \\      /  F ield         | OpenFOAM: The Open Source CFD Toolbox
   \\    /   O peration     | Website:  https://openfoam.org
    \\  /    A nd           | Version:  9
     \\/     M anipulation  |
\*---------------------------------------------------------------------------*/
FoamFile
{
    format      ascii;
    class       volScalarField;
    location    "154800";
    object      gradTx;
}
// * * * * * * * * * * * * * * * * * * * * * * * * * * * * * * * * * * * * * //

dimensions      [0 -1 0 1 0 0 0];

internalField   nonuniform List<scalar> 
100
(
-500.994
-502.98
-504.967
-506.953
-508.938
-510.922
-512.905
-514.886
-516.865
-518.843
-520.818
-522.79
-524.759
-526.726
-528.688
-530.648
-532.603
-534.553
-536.5
-538.441
-540.377
-542.307
-544.231
-546.149
-548.06
-549.964
-551.86
-553.749
-555.629
-557.5
-559.362
-561.215
-563.057
-564.888
-566.708
-568.516
-570.312
-572.095
-573.864
-575.619
-577.359
-579.084
-580.793
-582.485
-584.159
-585.816
-587.453
-589.07
-590.667
-592.242
-593.795
-595.324
-596.83
-598.31
-599.765
-601.193
-602.592
-603.963
-605.303
-606.613
-607.89
-609.133
-610.342
-611.516
-612.652
-613.75
-614.808
-615.825
-616.8
-617.731
-618.618
-619.457
-620.249
-620.991
-621.682
-622.321
-622.905
-623.433
-623.904
-624.316
-624.666
-624.954
-625.177
-625.333
-625.422
-625.44
-625.386
-625.257
-625.053
-624.771
-624.408
-623.963
-623.433
-622.817
-622.112
-621.315
-620.426
-619.44
-618.357
-617.173
)
;

boundaryField
{
    left
    {
        type            calculated;
        value           uniform -500;
    }
    right
    {
        type            calculated;
        value           uniform -616.556;
    }
    frontAndBack
    {
        type            empty;
    }
    top_bottom
    {
        type            calculated;
        value           nonuniform List<scalar> 
200
(
-500.994
-502.98
-504.967
-506.953
-508.938
-510.922
-512.905
-514.886
-516.865
-518.843
-520.818
-522.79
-524.759
-526.726
-528.688
-530.648
-532.603
-534.553
-536.5
-538.441
-540.377
-542.307
-544.231
-546.149
-548.06
-549.964
-551.86
-553.749
-555.629
-557.5
-559.362
-561.215
-563.057
-564.888
-566.708
-568.516
-570.312
-572.095
-573.864
-575.619
-577.359
-579.084
-580.793
-582.485
-584.159
-585.816
-587.453
-589.07
-590.667
-592.242
-593.795
-595.324
-596.83
-598.31
-599.765
-601.193
-602.592
-603.963
-605.303
-606.613
-607.89
-609.133
-610.342
-611.516
-612.652
-613.75
-614.808
-615.825
-616.8
-617.731
-618.618
-619.457
-620.249
-620.991
-621.682
-622.321
-622.905
-623.433
-623.904
-624.316
-624.666
-624.954
-625.177
-625.333
-625.422
-625.44
-625.386
-625.257
-625.053
-624.771
-624.408
-623.963
-623.433
-622.817
-622.112
-621.315
-620.426
-619.44
-618.357
-617.173
-500.994
-502.98
-504.967
-506.953
-508.938
-510.922
-512.905
-514.886
-516.865
-518.843
-520.818
-522.79
-524.759
-526.726
-528.688
-530.648
-532.603
-534.553
-536.5
-538.441
-540.377
-542.307
-544.231
-546.149
-548.06
-549.964
-551.86
-553.749
-555.629
-557.5
-559.362
-561.215
-563.057
-564.888
-566.708
-568.516
-570.312
-572.095
-573.864
-575.619
-577.359
-579.084
-580.793
-582.485
-584.159
-585.816
-587.453
-589.07
-590.667
-592.242
-593.795
-595.324
-596.83
-598.31
-599.765
-601.193
-602.592
-603.963
-605.303
-606.613
-607.89
-609.133
-610.342
-611.516
-612.652
-613.75
-614.808
-615.825
-616.8
-617.731
-618.618
-619.457
-620.249
-620.991
-621.682
-622.321
-622.905
-623.433
-623.904
-624.316
-624.666
-624.954
-625.177
-625.333
-625.422
-625.44
-625.386
-625.257
-625.053
-624.771
-624.408
-623.963
-623.433
-622.817
-622.112
-621.315
-620.426
-619.44
-618.357
-617.173
)
;
    }
}


// ************************************************************************* //
