/*--------------------------------*- C++ -*----------------------------------*\
  =========                 |
  \\      /  F ield         | OpenFOAM: The Open Source CFD Toolbox
   \\    /   O peration     | Website:  https://openfoam.org
    \\  /    A nd           | Version:  9
     \\/     M anipulation  |
\*---------------------------------------------------------------------------*/
FoamFile
{
    format      ascii;
    class       volScalarField;
    location    "154800";
    object      T;
}
// * * * * * * * * * * * * * * * * * * * * * * * * * * * * * * * * * * * * * //

dimensions      [0 0 0 1 0 0 0];

internalField   nonuniform List<scalar> 
100
(
389.636
388.632
387.624
386.612
385.596
384.576
383.552
382.524
381.493
380.457
379.417
378.374
377.326
376.275
375.219
374.16
373.097
372.03
370.958
369.884
368.805
367.722
366.635
365.545
364.451
363.353
362.251
361.145
360.036
358.923
357.806
356.685
355.561
354.433
353.302
352.166
351.028
349.885
348.739
347.59
346.437
345.28
344.12
342.957
341.79
340.62
339.447
338.271
337.091
335.908
334.722
333.533
332.341
331.145
329.947
328.746
327.543
326.336
325.127
323.915
322.7
321.483
320.264
319.042
317.818
316.591
315.363
314.132
312.899
311.665
310.428
309.19
307.951
306.709
305.467
304.223
302.977
301.731
300.484
299.235
297.986
296.737
295.487
294.236
292.985
291.734
290.484
289.233
287.982
286.733
285.483
284.235
282.988
281.741
280.496
279.253
278.011
276.771
275.533
274.298
)
;

boundaryField
{
    left
    {
        type            fixedGradient;
        gradient        uniform 500;
    }
    right
    {
        type            uniformFixedValue;
        uniformValue    
        {
            type            sine;
            amplitude       
            {
                type            constant;
                value           20;
            }
            frequency       1.1574e-05;
            start           0;
            level           
            {
                type            constant;
                value           293;
            }
        }
        value           uniform 273.681;
    }
    frontAndBack
    {
        type            empty;
    }
    top_bottom
    {
        type            zeroGradient;
    }
}


// ************************************************************************* //
