/*--------------------------------*- C++ -*----------------------------------*\
  =========                 |
  \\      /  F ield         | OpenFOAM: The Open Source CFD Toolbox
   \\    /   O peration     | Website:  https://openfoam.org
    \\  /    A nd           | Version:  9
     \\/     M anipulation  |
\*---------------------------------------------------------------------------*/
FoamFile
{
    format      ascii;
    class       volScalarField;
    location    "154800";
    object      T_0;
}
// * * * * * * * * * * * * * * * * * * * * * * * * * * * * * * * * * * * * * //

dimensions      [0 0 0 1 0 0 0];

internalField   nonuniform List<scalar> 
100
(
389.844
388.84
387.832
386.82
385.804
384.784
383.76
382.732
381.7
380.664
379.624
378.58
377.532
376.48
375.425
374.365
373.301
372.234
371.162
370.087
369.007
367.924
366.837
365.746
364.651
363.552
362.45
361.343
360.233
359.119
358.001
356.879
355.754
354.625
353.492
352.356
351.216
350.072
348.925
347.774
346.619
345.461
344.299
343.134
341.966
340.794
339.619
338.44
337.258
336.073
334.885
333.693
332.499
331.301
330.1
328.896
327.69
326.48
325.268
324.052
322.835
321.614
320.391
319.165
317.937
316.707
315.474
314.239
313.002
311.763
310.522
309.279
308.034
306.788
305.54
304.29
303.039
301.787
300.534
299.279
298.024
296.768
295.511
294.253
292.995
291.737
290.479
289.22
287.962
286.704
285.446
284.189
282.933
281.677
280.423
279.17
277.918
276.668
275.42
274.174
)
;

boundaryField
{
    left
    {
        type            fixedGradient;
        gradient        uniform 500;
    }
    right
    {
        type            uniformFixedValue;
        uniformValue    
        {
            type            sine;
            amplitude       
            {
                type            constant;
                value           20;
            }
            frequency       1.1574e-05;
            start           0;
            level           
            {
                type            constant;
                value           293;
            }
        }
        value           uniform 273.552;
    }
    frontAndBack
    {
        type            empty;
    }
    top_bottom
    {
        type            zeroGradient;
    }
}


// ************************************************************************* //
