/*--------------------------------*- C++ -*----------------------------------*\
  =========                 |
  \\      /  F ield         | OpenFOAM: The Open Source CFD Toolbox
   \\    /   O peration     | Website:  https://openfoam.org
    \\  /    A nd           | Version:  9
     \\/     M anipulation  |
\*---------------------------------------------------------------------------*/
FoamFile
{
    format      ascii;
    class       volScalarField;
    location    "169200";
    object      ddt0(T);
}
// * * * * * * * * * * * * * * * * * * * * * * * * * * * * * * * * * * * * * //

dimensions      [0 0 -1 1 0 0 0];

internalField   nonuniform List<scalar> 
100
(
-0.000168925
-0.000168631
-0.000168044
-0.000167163
-0.000165988
-0.000164519
-0.000162756
-0.000160698
-0.000158345
-0.000155696
-0.000152752
-0.000149512
-0.000145975
-0.000142141
-0.000138009
-0.000133578
-0.000128848
-0.000123818
-0.000118487
-0.000112855
-0.000106921
-0.000100683
-9.41412e-05
-8.72944e-05
-8.01417e-05
-7.2682e-05
-6.49143e-05
-5.68376e-05
-4.84508e-05
-3.97529e-05
-3.07427e-05
-2.14192e-05
-1.17813e-05
-1.82773e-06
8.44256e-06
1.90307e-05
2.99379e-05
4.11653e-05
5.2714e-05
6.45852e-05
7.67799e-05
8.92994e-05
0.000102145
0.000115317
0.000128817
0.000142646
0.000156806
0.000171296
0.000186118
0.000201273
0.000216762
0.000232586
0.000248745
0.00026524
0.000282071
0.00029924
0.000316747
0.000334592
0.000352776
0.000371299
0.000390161
0.000409363
0.000428904
0.000448784
0.000469003
0.000489561
0.000510458
0.000531692
0.000553264
0.000575173
0.000597417
0.000619996
0.000642908
0.000666153
0.000689727
0.000713631
0.000737862
0.000762418
0.000787297
0.000812496
0.000838013
0.000863845
0.000889989
0.000916442
0.000943201
0.000970261
0.000997619
0.00102527
0.00105321
0.00108144
0.00110994
0.00113872
0.00116777
0.00119709
0.00122666
0.00125648
0.00128654
0.00131685
0.00134738
0.00137814
)
;

boundaryField
{
    left
    {
        type            calculated;
        value           uniform -0.000168925;
    }
    right
    {
        type            calculated;
        value           uniform 0.00139362;
    }
    frontAndBack
    {
        type            empty;
    }
    top_bottom
    {
        type            calculated;
        value           nonuniform List<scalar> 
200
(
-0.000168925
-0.000168631
-0.000168044
-0.000167163
-0.000165988
-0.000164519
-0.000162756
-0.000160698
-0.000158345
-0.000155696
-0.000152752
-0.000149512
-0.000145975
-0.000142141
-0.000138009
-0.000133578
-0.000128848
-0.000123818
-0.000118487
-0.000112855
-0.000106921
-0.000100683
-9.41412e-05
-8.72944e-05
-8.01417e-05
-7.2682e-05
-6.49143e-05
-5.68376e-05
-4.84508e-05
-3.97529e-05
-3.07427e-05
-2.14192e-05
-1.17813e-05
-1.82773e-06
8.44256e-06
1.90307e-05
2.99379e-05
4.11653e-05
5.2714e-05
6.45852e-05
7.67799e-05
8.92994e-05
0.000102145
0.000115317
0.000128817
0.000142646
0.000156806
0.000171296
0.000186118
0.000201273
0.000216762
0.000232586
0.000248745
0.00026524
0.000282071
0.00029924
0.000316747
0.000334592
0.000352776
0.000371299
0.000390161
0.000409363
0.000428904
0.000448784
0.000469003
0.000489561
0.000510458
0.000531692
0.000553264
0.000575173
0.000597417
0.000619996
0.000642908
0.000666153
0.000689727
0.000713631
0.000737862
0.000762418
0.000787297
0.000812496
0.000838013
0.000863845
0.000889989
0.000916442
0.000943201
0.000970261
0.000997619
0.00102527
0.00105321
0.00108144
0.00110994
0.00113872
0.00116777
0.00119709
0.00122666
0.00125648
0.00128654
0.00131685
0.00134738
0.00137814
-0.000168925
-0.000168631
-0.000168044
-0.000167163
-0.000165988
-0.000164519
-0.000162756
-0.000160698
-0.000158345
-0.000155696
-0.000152752
-0.000149512
-0.000145975
-0.000142141
-0.000138009
-0.000133578
-0.000128848
-0.000123818
-0.000118487
-0.000112855
-0.000106921
-0.000100683
-9.41412e-05
-8.72944e-05
-8.01417e-05
-7.2682e-05
-6.49143e-05
-5.68376e-05
-4.84508e-05
-3.97529e-05
-3.07427e-05
-2.14192e-05
-1.17813e-05
-1.82773e-06
8.44256e-06
1.90307e-05
2.99379e-05
4.11653e-05
5.2714e-05
6.45852e-05
7.67799e-05
8.92994e-05
0.000102145
0.000115317
0.000128817
0.000142646
0.000156806
0.000171296
0.000186118
0.000201273
0.000216762
0.000232586
0.000248745
0.00026524
0.000282071
0.00029924
0.000316747
0.000334592
0.000352776
0.000371299
0.000390161
0.000409363
0.000428904
0.000448784
0.000469003
0.000489561
0.000510458
0.000531692
0.000553264
0.000575173
0.000597417
0.000619996
0.000642908
0.000666153
0.000689727
0.000713631
0.000737862
0.000762418
0.000787297
0.000812496
0.000838013
0.000863845
0.000889989
0.000916442
0.000943201
0.000970261
0.000997619
0.00102527
0.00105321
0.00108144
0.00110994
0.00113872
0.00116777
0.00119709
0.00122666
0.00125648
0.00128654
0.00131685
0.00134738
0.00137814
)
;
    }
}


// ************************************************************************* //
