/*--------------------------------*- C++ -*----------------------------------*\
  =========                 |
  \\      /  F ield         | OpenFOAM: The Open Source CFD Toolbox
   \\    /   O peration     | Website:  https://openfoam.org
    \\  /    A nd           | Version:  9
     \\/     M anipulation  |
\*---------------------------------------------------------------------------*/
FoamFile
{
    format      ascii;
    class       volScalarField;
    location    "169200";
    object      gradTx;
}
// * * * * * * * * * * * * * * * * * * * * * * * * * * * * * * * * * * * * * //

dimensions      [0 -1 0 1 0 0 0];

internalField   nonuniform List<scalar> 
100
(
-500.265
-500.794
-501.321
-501.846
-502.367
-502.884
-503.395
-503.899
-504.396
-504.884
-505.362
-505.83
-506.285
-506.728
-507.157
-507.572
-507.97
-508.351
-508.715
-509.059
-509.383
-509.686
-509.967
-510.225
-510.458
-510.666
-510.848
-511.002
-511.128
-511.224
-511.289
-511.322
-511.323
-511.289
-511.221
-511.116
-510.974
-510.794
-510.574
-510.314
-510.012
-509.667
-509.278
-508.844
-508.365
-507.837
-507.262
-506.637
-505.961
-505.233
-504.453
-503.618
-502.728
-501.781
-500.778
-499.715
-498.592
-497.409
-496.163
-494.854
-493.481
-492.042
-490.536
-488.962
-487.32
-485.607
-483.822
-481.965
-480.035
-478.03
-475.948
-473.79
-471.554
-469.238
-466.842
-464.364
-461.804
-459.16
-456.431
-453.617
-450.715
-447.726
-444.647
-441.478
-438.219
-434.867
-431.422
-427.884
-424.25
-420.52
-416.693
-412.769
-408.746
-404.623
-400.4
-396.076
-391.65
-387.121
-382.489
-377.752
)
;

boundaryField
{
    left
    {
        type            calculated;
        value           uniform -500;
    }
    right
    {
        type            calculated;
        value           uniform -375.358;
    }
    frontAndBack
    {
        type            empty;
    }
    top_bottom
    {
        type            calculated;
        value           nonuniform List<scalar> 
200
(
-500.265
-500.794
-501.321
-501.846
-502.367
-502.884
-503.395
-503.899
-504.396
-504.884
-505.362
-505.83
-506.285
-506.728
-507.157
-507.572
-507.97
-508.351
-508.715
-509.059
-509.383
-509.686
-509.967
-510.225
-510.458
-510.666
-510.848
-511.002
-511.128
-511.224
-511.289
-511.322
-511.323
-511.289
-511.221
-511.116
-510.974
-510.794
-510.574
-510.314
-510.012
-509.667
-509.278
-508.844
-508.365
-507.837
-507.262
-506.637
-505.961
-505.233
-504.453
-503.618
-502.728
-501.781
-500.778
-499.715
-498.592
-497.409
-496.163
-494.854
-493.481
-492.042
-490.536
-488.962
-487.32
-485.607
-483.822
-481.965
-480.035
-478.03
-475.948
-473.79
-471.554
-469.238
-466.842
-464.364
-461.804
-459.16
-456.431
-453.617
-450.715
-447.726
-444.647
-441.478
-438.219
-434.867
-431.422
-427.884
-424.25
-420.52
-416.693
-412.769
-408.746
-404.623
-400.4
-396.076
-391.65
-387.121
-382.489
-377.752
-500.265
-500.794
-501.321
-501.846
-502.367
-502.884
-503.395
-503.899
-504.396
-504.884
-505.362
-505.83
-506.285
-506.728
-507.157
-507.572
-507.97
-508.351
-508.715
-509.059
-509.383
-509.686
-509.967
-510.225
-510.458
-510.666
-510.848
-511.002
-511.128
-511.224
-511.289
-511.322
-511.323
-511.289
-511.221
-511.116
-510.974
-510.794
-510.574
-510.314
-510.012
-509.667
-509.278
-508.844
-508.365
-507.837
-507.262
-506.637
-505.961
-505.233
-504.453
-503.618
-502.728
-501.781
-500.778
-499.715
-498.592
-497.409
-496.163
-494.854
-493.481
-492.042
-490.536
-488.962
-487.32
-485.607
-483.822
-481.965
-480.035
-478.03
-475.948
-473.79
-471.554
-469.238
-466.842
-464.364
-461.804
-459.16
-456.431
-453.617
-450.715
-447.726
-444.647
-441.478
-438.219
-434.867
-431.422
-427.884
-424.25
-420.52
-416.693
-412.769
-408.746
-404.623
-400.4
-396.076
-391.65
-387.121
-382.489
-377.752
)
;
    }
}


// ************************************************************************* //
