/*--------------------------------*- C++ -*----------------------------------*\
  =========                 |
  \\      /  F ield         | OpenFOAM: The Open Source CFD Toolbox
   \\    /   O peration     | Website:  https://openfoam.org
    \\  /    A nd           | Version:  9
     \\/     M anipulation  |
\*---------------------------------------------------------------------------*/
FoamFile
{
    format      ascii;
    class       volScalarField;
    location    "169200";
    object      T;
}
// * * * * * * * * * * * * * * * * * * * * * * * * * * * * * * * * * * * * * //

dimensions      [0 0 0 1 0 0 0];

internalField   nonuniform List<scalar> 
100
(
383.817
382.816
381.814
380.811
379.807
378.802
377.795
376.788
375.78
374.77
373.76
372.749
371.737
370.724
369.71
368.695
367.68
366.663
365.646
364.628
363.61
362.591
361.571
360.551
359.53
358.509
357.488
356.466
355.444
354.421
353.399
352.376
351.354
350.331
349.308
348.286
347.264
346.242
345.221
344.2
343.179
342.16
341.141
340.123
339.105
338.089
337.074
336.06
335.048
334.036
333.027
332.019
331.012
330.008
329.005
328.004
327.006
326.01
325.017
324.025
323.037
322.052
321.069
320.089
319.113
318.14
317.171
316.205
315.243
314.285
313.331
312.381
311.436
310.495
309.559
308.627
307.701
306.78
305.864
304.954
304.05
303.152
302.259
301.373
300.493
299.62
298.754
297.894
297.042
296.197
295.36
294.531
293.709
292.896
292.091
291.294
290.506
289.727
288.958
288.197
)
;

boundaryField
{
    left
    {
        type            fixedGradient;
        gradient        uniform 500;
    }
    right
    {
        type            uniformFixedValue;
        uniformValue    
        {
            type            sine;
            amplitude       
            {
                type            constant;
                value           20;
            }
            frequency       1.1574e-05;
            start           0;
            level           
            {
                type            constant;
                value           293;
            }
        }
        value           uniform 287.822;
    }
    frontAndBack
    {
        type            empty;
    }
    top_bottom
    {
        type            zeroGradient;
    }
}


// ************************************************************************* //
