/*--------------------------------*- C++ -*----------------------------------*\
  =========                 |
  \\      /  F ield         | OpenFOAM: The Open Source CFD Toolbox
   \\    /   O peration     | Website:  https://openfoam.org
    \\  /    A nd           | Version:  9
     \\/     M anipulation  |
\*---------------------------------------------------------------------------*/
FoamFile
{
    format      ascii;
    class       volScalarField;
    location    "169200";
    object      T_0;
}
// * * * * * * * * * * * * * * * * * * * * * * * * * * * * * * * * * * * * * //

dimensions      [0 0 0 1 0 0 0];

internalField   nonuniform List<scalar> 
100
(
383.875
382.874
381.871
380.868
379.863
378.858
377.851
376.843
375.833
374.823
373.812
372.8
371.786
370.772
369.756
368.74
367.723
366.705
365.686
364.666
363.645
362.624
361.602
360.579
359.556
358.532
357.508
356.483
355.458
354.432
353.406
352.38
351.354
350.328
349.302
348.276
347.25
346.224
345.198
344.173
343.148
342.124
341.1
340.078
339.055
338.034
337.014
335.995
334.977
333.96
332.945
331.931
330.919
329.908
328.9
327.893
326.888
325.886
324.886
323.888
322.893
321.9
320.911
319.924
318.941
317.96
316.983
316.01
315.04
314.074
313.112
312.154
311.2
310.251
309.307
308.367
307.432
306.502
305.578
304.658
303.745
302.837
301.935
301.04
300.15
299.268
298.391
297.522
296.66
295.805
294.958
294.118
293.286
292.462
291.646
290.839
290.041
289.251
288.47
287.699
)
;

boundaryField
{
    left
    {
        type            fixedGradient;
        gradient        uniform 500;
    }
    right
    {
        type            uniformFixedValue;
        uniformValue    
        {
            type            sine;
            amplitude       
            {
                type            constant;
                value           20;
            }
            frequency       1.1574e-05;
            start           0;
            level           
            {
                type            constant;
                value           293;
            }
        }
        value           uniform 287.318;
    }
    frontAndBack
    {
        type            empty;
    }
    top_bottom
    {
        type            zeroGradient;
    }
}


// ************************************************************************* //
