/*--------------------------------*- C++ -*----------------------------------*\
  =========                 |
  \\      /  F ield         | OpenFOAM: The Open Source CFD Toolbox
   \\    /   O peration     | Website:  https://openfoam.org
    \\  /    A nd           | Version:  9
     \\/     M anipulation  |
\*---------------------------------------------------------------------------*/
FoamFile
{
    format      ascii;
    class       volScalarField;
    location    "10";
    object      gradTy;
}
// * * * * * * * * * * * * * * * * * * * * * * * * * * * * * * * * * * * * * //

dimensions      [0 -1 0 1 0 0 0];

internalField   nonuniform List<scalar> 
10000
(
-4.16317e-05
-4.10325e-05
-3.66995e-05
-2.82782e-05
-1.56036e-05
1.31862e-06
2.23449e-05
4.72302e-05
7.56587e-05
0.000107262
0.000141621
0.00017826
0.000216623
0.00025605
0.000295757
0.000334829
0.000372215
0.000406756
0.000437214
0.000462331
0.000480879
0.000491725
0.000493888
0.00048659
0.000469293
0.000441733
0.00040394
0.00035626
0.00029937
0.000234295
0.00016242
8.54877e-05
5.58003e-06
-7.49391e-05
-0.00015352
-0.000227566
-0.000294616
-0.000352544
-0.000399751
-0.00043533
-0.000459152
-0.000471854
-0.000474715
-0.000469423
-0.000457751
-0.000441181
-0.000420528
-0.000395615
-0.000365058
-0.000326201
-0.000275241
-0.000207587
-0.000118458
-3.75279e-06
0.000138859
0.00030867
0.000500671
0.000704506
0.000903998
0.00107759
0.00120002
0.00124544
0.00119178
0.00102585
0.000748249
0.000376786
-5.31021e-05
-0.000491933
-0.000884192
-0.00117985
-0.00134691
-0.00138125
-0.00130937
-0.00118104
-0.00105161
-0.000958981
-0.000904747
-0.000850906
-0.000739457
-0.000530681
-0.000241105
4.68096e-05
0.000222583
0.000221945
8.76205e-05
-4.54792e-05
-5.65476e-05
4.06366e-05
9.74854e-05
2.57075e-07
-0.000154039
-0.000142247
5.56379e-05
0.000164241
6.46817e-05
6.69333e-05
0.000237723
0.000110395
-0.000157923
-5.73785e-05
0.000982142
0.000981389
0.000982176
0.000984757
0.000989232
0.000995582
0.00100372
0.00101353
0.00102492
0.00103783
0.00105226
0.00106819
0.00108561
0.00110445
0.00112456
0.0011457
0.0011675
0.00118953
0.00121126
0.00123216
0.0012517
0.00126941
0.00128486
0.0012977
0.00130761
0.00131433
0.00131758
0.00131707
0.00131252
0.00130365
0.00129025
0.00127223
0.00124966
0.00122289
0.00119249
0.00115928
0.00112429
0.00108863
0.00105345
0.0010198
0.000988575
0.00096045
0.000935875
0.000915062
0.000897981
0.000884343
0.000873558
0.000864691
0.00085645
0.000847252
0.000835423
0.000819547
0.000798976
0.000774401
0.000748374
0.00072559
0.000712734
0.00071775
0.000748434
0.000810461
0.000905093
0.00102705
0.00116317
0.00129265
0.00138925
0.001426
0.00138166
0.00124782
0.00103446
0.000771478
0.000504044
0.000281448
0.00014163
9.65965e-05
0.000125594
0.000181694
0.000212498
0.000187897
0.000120856
6.60102e-05
8.95528e-05
0.000221432
0.000418988
0.000575615
0.000586623
0.000439121
0.00024991
0.000183771
0.000281722
0.000372161
0.000251885
2.18655e-05
5.14668e-05
0.000340876
0.000311003
-3.88484e-05
6.04963e-05
7.38475e-05
-0.000228744
-0.000118346
0.00277131
0.0027733
0.00277449
0.00277469
0.00277372
0.00277144
0.00276774
0.00276254
0.00275582
0.00274759
0.00273787
0.00272669
0.00271408
0.00270006
0.00268469
0.00266803
0.00265023
0.00263151
0.00261221
0.00259279
0.00257385
0.00255611
0.00254037
0.00252751
0.00251838
0.00251383
0.00251459
0.00252127
0.00253429
0.00255386
0.00257993
0.00261213
0.00264969
0.00269143
0.00273566
0.00278016
0.00282222
0.00285873
0.00288635
0.00290176
0.00290197
0.00288469
0.00284868
0.00279398
0.00272206
0.00263583
0.00253942
0.00243782
0.00233638
0.00224019
0.00215348
0.00207898
0.00201745
0.00196744
0.00192527
0.0018855
0.00184178
0.00178821
0.00172105
0.00164039
0.00155161
0.00146586
0.00139916
0.00136988
0.00139459
0.00148292
0.00163264
0.00182655
0.00203281
0.00220996
0.00231663
0.00232432
0.00222935
0.00205886
0.00186532
0.00170739
0.00162127
0.00159526
0.00156584
0.00144931
0.00120297
0.000880138
0.00062503
0.000577442
0.000735163
0.000904788
0.000852164
0.000571882
0.000363847
0.000486662
0.000719223
0.000579034
0.00015319
8.13367e-05
0.000261287
3.61633e-05
-0.00016197
-4.46399e-05
-0.000143374
-0.000113708
0.00391564
0.00391654
0.00391959
0.00392484
0.00393236
0.00394219
0.00395434
0.00396879
0.00398547
0.00400424
0.00402488
0.00404708
0.00407042
0.0040944
0.00411845
0.00414193
0.00416416
0.00418443
0.00420201
0.00421618
0.00422622
0.00423139
0.00423099
0.00422433
0.00421075
0.00418969
0.00416069
0.00412351
0.00407812
0.00402484
0.00396431
0.00389756
0.00382597
0.00375123
0.00367527
0.00360012
0.00352785
0.00346041
0.00339956
0.00334672
0.00330297
0.0032689
0.00324462
0.00322964
0.00322289
0.00322269
0.00322682
0.00323271
0.00323766
0.00323928
0.00323588
0.0032269
0.00321324
0.00319724
0.00318235
0.00317234
0.00317003
0.0031758
0.00318605
0.00319222
0.00318078
0.00313474
0.00303696
0.00287509
0.00264716
0.00236643
0.00206312
0.00178119
0.00156891
0.00146453
0.00148067
0.00159411
0.00174752
0.00186703
0.00189246
0.00180841
0.00165849
0.00152831
0.00149727
0.00158198
0.00171011
0.00175662
0.00163536
0.00138571
0.00116933
0.00114107
0.00127803
0.00134979
0.00114395
0.000770448
0.000606746
0.00074194
0.000692178
0.000242156
5.62978e-05
0.00011626
-7.38133e-05
-3.14063e-05
-7.79942e-05
-8.78102e-05
0.00544951
0.00544845
0.00544454
0.0054377
0.00542785
0.00541499
0.00539912
0.00538032
0.00535873
0.00533455
0.00530806
0.00527965
0.0052498
0.00521911
0.00518829
0.00515814
0.00512955
0.0051035
0.00508099
0.00506299
0.00505047
0.00504428
0.00504513
0.00505354
0.00506977
0.00509379
0.00512523
0.0051633
0.00520677
0.00525392
0.00530255
0.00534995
0.005393
0.00542824
0.00545205
0.00546089
0.00545152
0.00542135
0.00536874
0.00529321
0.00519572
0.00507869
0.00494599
0.00480271
0.00465485
0.00450878
0.00437067
0.00424583
0.0041381
0.00404924
0.00397863
0.00392316
0.0038776
0.00383533
0.00378962
0.00373512
0.00366958
0.00359514
0.00351896
0.0034527
0.0034105
0.0034057
0.00344665
0.00353266
0.00365136
0.00377862
0.0038821
0.00392821
0.00389145
0.00376356
0.00355925
0.00331497
0.00307887
0.00289274
0.00277153
0.00269004
0.00258848
0.00240286
0.00211249
0.00177721
0.00152643
0.00147984
0.00163532
0.00182268
0.0018172
0.0015713
0.00132611
0.00136738
0.0015973
0.00155375
0.00110981
0.000798098
0.000812805
0.00055243
0.000229375
4.44012e-05
-6.98418e-05
2.88954e-05
5.90721e-05
-3.18283e-05
0.00640571
0.0064068
0.00640868
0.00641136
0.00641481
0.00641897
0.00642376
0.00642903
0.0064346
0.00644027
0.00644577
0.00645085
0.0064552
0.00645851
0.00646043
0.00646064
0.00645875
0.00645441
0.00644725
0.00643691
0.00642303
0.00640531
0.00638352
0.00635751
0.00632726
0.00629291
0.00625476
0.00621327
0.00616911
0.00612304
0.00607593
0.00602869
0.00598215
0.00593708
0.00589405
0.00585341
0.00581527
0.00577943
0.00574546
0.00571264
0.00568001
0.00564641
0.00561051
0.00557089
0.00552618
0.00547514
0.00541693
0.00535128
0.00527872
0.00520072
0.00511969
0.00503881
0.00496154
0.00489094
0.0048287
0.00477419
0.00472355
0.00466942
0.0046014
0.00450766
0.00437778
0.00420648
0.00399753
0.00376661
0.00354147
0.00335802
0.00325188
0.00324642
0.0033408
0.00350295
0.00367313
0.00378073
0.00377142
0.00363428
0.0034137
0.00319311
0.00305056
0.00300651
0.00299929
0.00291815
0.00268785
0.00234896
0.0020551
0.00195657
0.00204868
0.00214186
0.00203612
0.00175472
0.00153927
0.00152494
0.00150251
0.0012312
0.000901375
0.000765487
0.000573758
0.00037947
0.000169482
0.000152538
0.000187277
4.30168e-05
0.00742292
0.00742144
0.00741736
0.00741057
0.00740102
0.00738874
0.00737379
0.00735634
0.00733662
0.00731495
0.00729174
0.00726746
0.00724267
0.00721796
0.00719399
0.00717146
0.00715105
0.00713344
0.00711928
0.00710913
0.00710343
0.00710249
0.00710639
0.00711499
0.00712783
0.00714415
0.00716281
0.00718228
0.0072007
0.00721588
0.00722542
0.00722678
0.00721748
0.00719528
0.00715834
0.00710545
0.00703625
0.00695129
0.00685219
0.00674161
0.00662319
0.00650132
0.00638087
0.00626676
0.00616348
0.00607455
0.00600197
0.00594578
0.00590383
0.00587173
0.00584334
0.0058115
0.0057693
0.00571151
0.00563595
0.00554461
0.00544386
0.00534368
0.00525566
0.00519003
0.0051523
0.00514036
0.00514322
0.00514219
0.00511484
0.00504126
0.00491104
0.00472864
0.00451482
0.00430217
0.00412504
0.00400603
0.00394389
0.00390881
0.00385031
0.00371888
0.00349562
0.00321494
0.00296109
0.00282553
0.00283766
0.00291654
0.00290612
0.00270743
0.00240764
0.00223215
0.00227992
0.00233265
0.00211781
0.00178718
0.00171222
0.00169593
0.0013955
0.00129316
0.00100085
0.000818219
0.000480637
0.000304555
0.000290801
0.000105658
0.00830386
0.00830464
0.00830433
0.00830285
0.00830012
0.00829605
0.00829056
0.00828359
0.00827508
0.00826499
0.00825328
0.00823994
0.00822497
0.00820839
0.00819026
0.00817065
0.00814967
0.00812748
0.00810426
0.00808027
0.00805581
0.00803122
0.00800687
0.00798318
0.00796052
0.00793927
0.00791968
0.00790193
0.00788599
0.00787165
0.00785848
0.00784577
0.00783258
0.00781774
0.00779987
0.00777747
0.00774894
0.00771266
0.00766714
0.00761103
0.00754329
0.00746328
0.00737087
0.00726661
0.00715183
0.00702868
0.00690021
0.00677024
0.00664318
0.00652365
0.00641595
0.00632343
0.00624776
0.00618829
0.00614157
0.00610133
0.00605901
0.00600492
0.00593026
0.00582953
0.00570307
0.00555902
0.00541357
0.0052888
0.00520766
0.00518636
0.0052262
0.00530781
0.00539162
0.00542723
0.00537107
0.00520705
0.00495984
0.00469018
0.00446759
0.00432954
0.00425083
0.00415059
0.00394604
0.00362461
0.00327481
0.00302897
0.00294478
0.00293538
0.00284765
0.00263653
0.00242548
0.00233398
0.00229269
0.00216158
0.00196411
0.00176904
0.00156051
0.00146292
0.00124506
0.00110584
0.000775745
0.000450275
0.000322277
0.00013316
0.00874483
0.00874325
0.00873984
0.00873456
0.00872739
0.00871834
0.00870746
0.00869485
0.00868065
0.00866504
0.00864826
0.0086306
0.00861237
0.00859394
0.0085757
0.00855807
0.00854145
0.00852621
0.00851271
0.00850117
0.00849177
0.00848449
0.00847917
0.00847546
0.00847281
0.00847045
0.00846741
0.00846257
0.00845467
0.00844242
0.00842451
0.00839978
0.00836725
0.00832629
0.00827668
0.0082187
0.00815325
0.0080818
0.00800642
0.00792963
0.00785429
0.00778326
0.00771911
0.00766368
0.0076177
0.00758041
0.00754939
0.00752056
0.00748855
0.00744732
0.00739119
0.00731594
0.00722
0.00710519
0.00697697
0.00684385
0.00671575
0.0066018
0.00650765
0.00643328
0.00637198
0.00631118
0.0062355
0.00613145
0.00599269
0.00582395
0.00564171
0.00547045
0.00533484
0.00524996
0.00521339
0.00520309
0.00518348
0.00511887
0.0049896
0.00480373
0.00459711
0.00441795
0.00429925
0.00423156
0.00415719
0.00400335
0.00374626
0.00345335
0.00323499
0.00311343
0.00296189
0.00266745
0.00234864
0.00219746
0.00208879
0.00184014
0.00169412
0.00153115
0.00133918
0.00125496
0.000974542
0.000559369
0.000315222
0.000129296
0.00943716
0.00943622
0.00943332
0.00942836
0.00942127
0.00941199
0.00940049
0.00938676
0.00937085
0.00935283
0.00933282
0.00931098
0.00928754
0.00926278
0.00923703
0.00921067
0.00918413
0.00915789
0.00913244
0.0091083
0.00908595
0.00906586
0.00904842
0.00903392
0.00902251
0.00901422
0.00900884
0.00900601
0.00900511
0.00900529
0.0090055
0.00900447
0.00900073
0.00899271
0.00897872
0.0089571
0.00892626
0.00888484
0.00883179
0.00876657
0.00868923
0.00860058
0.00850222
0.0083966
0.00828689
0.00817688
0.00807062
0.00797211
0.00788481
0.00781117
0.00775219
0.00770712
0.00767327
0.00764615
0.00761982
0.0075876
0.00754307
0.00748124
0.00739985
0.00730039
0.00718869
0.00707445
0.00696954
0.00688485
0.0068261
0.00678976
0.00676082
0.00671452
0.00662306
0.00646677
0.0062457
0.00598528
0.00572996
0.00552314
0.00538128
0.00527827
0.00515652
0.00496652
0.00471054
0.00445019
0.00425535
0.00412858
0.0039864
0.00374478
0.00343106
0.00316618
0.00300135
0.00284719
0.00265086
0.00249366
0.00233998
0.00206957
0.00187496
0.00163687
0.00136764
0.00124646
0.00105795
0.000674485
0.000334539
0.000113944
0.00978403
0.00978463
0.00978344
0.00978039
0.00977541
0.00976848
0.00975959
0.0097488
0.00973618
0.00972184
0.00970594
0.00968865
0.00967021
0.00965084
0.0096308
0.00961035
0.00958974
0.0095692
0.00954893
0.00952907
0.00950971
0.00949086
0.00947243
0.00945424
0.00943598
0.00941728
0.00939762
0.00937646
0.00935315
0.00932708
0.00929768
0.00926447
0.00922718
0.0091858
0.00914065
0.00909241
0.00904215
0.00899128
0.00894146
0.00889441
0.00885169
0.00881445
0.00878312
0.00875716
0.00873492
0.00871361
0.00868946
0.00865817
0.00861548
0.00855792
0.00848358
0.00839275
0.00828825
0.00817524
0.00806042
0.00795079
0.00785187
0.00776605
0.00769138
0.00762146
0.00754663
0.00745661
0.00734396
0.00720739
0.00705339
0.00689526
0.00674895
0.00662692
0.00653232
0.00645647
0.00638173
0.00628942
0.0061692
0.00602453
0.00587032
0.00572309
0.00558978
0.00546262
0.00532344
0.00515349
0.00494255
0.00469495
0.00443313
0.00419176
0.00399002
0.00379763
0.00355448
0.00326203
0.00301335
0.0028426
0.0026377
0.00237495
0.00214425
0.0018141
0.00141449
0.00118787
0.00104572
0.000747336
0.000374243
0.000104484
0.00981625
0.00981354
0.00980928
0.0098034
0.00979587
0.00978666
0.00977578
0.00976328
0.00974922
0.00973372
0.00971694
0.00969907
0.00968035
0.00966105
0.00964148
0.00962198
0.00960293
0.00958469
0.00956767
0.00955223
0.00953873
0.00952748
0.00951873
0.00951265
0.00950931
0.00950865
0.00951045
0.00951434
0.00951977
0.00952602
0.00953216
0.00953717
0.00953986
0.00953903
0.00953351
0.00952226
0.00950444
0.00947959
0.00944766
0.00940907
0.00936474
0.00931606
0.00926474
0.00921266
0.00916163
0.00911317
0.00906824
0.0090271
0.00898916
0.00895307
0.00891683
0.00887803
0.0088342
0.00878311
0.00872306
0.00865308
0.00857299
0.00848346
0.00838596
0.00828273
0.00817667
0.00807101
0.00796867
0.0078712
0.00777732
0.00768184
0.00757551
0.00744689
0.00728651
0.00709223
0.0068732
0.00664894
0.00644161
0.00626363
0.00610804
0.005951
0.00576988
0.00556648
0.00537318
0.00522589
0.00511865
0.00498799
0.00476398
0.00445087
0.00413398
0.00387494
0.00363331
0.00336429
0.00313642
0.00299146
0.00281185
0.00258263
0.0023775
0.00207166
0.00160825
0.00121265
0.000989938
0.00075988
0.000429301
0.000118513
0.0105245
0.0105255
0.0105243
0.0105208
0.0105148
0.0105064
0.0104954
0.0104819
0.0104659
0.0104474
0.0104265
0.0104034
0.010378
0.0103507
0.0103216
0.0102908
0.0102587
0.0102254
0.0101911
0.0101561
0.0101206
0.0100846
0.0100482
0.0100115
0.00997447
0.00993699
0.00989894
0.00986019
0.00982059
0.00978004
0.00973854
0.00969618
0.00965326
0.00961022
0.00956775
0.00952673
0.00948818
0.00945323
0.009423
0.00939846
0.00938029
0.00936871
0.00936337
0.00936319
0.00936638
0.00937045
0.00937239
0.00936891
0.00935688
0.00933371
0.00929778
0.00924878
0.00918783
0.00911725
0.00904008
0.00895928
0.00887675
0.00879255
0.00870456
0.0086089
0.00850113
0.00837805
0.00823946
0.00808911
0.00793385
0.00778112
0.0076352
0.00749421
0.00734988
0.00719157
0.00701339
0.00682092
0.00663225
0.00647012
0.00634758
0.00625607
0.00616614
0.00604373
0.00587118
0.00565473
0.00541096
0.00514852
0.00487
0.00459111
0.00433832
0.00410985
0.00386377
0.00358743
0.00333991
0.00314158
0.00291574
0.00267579
0.00249452
0.00225436
0.00180806
0.00129269
0.000936495
0.000712178
0.00045226
0.00014057
0.00994577
0.00994507
0.00994366
0.00994153
0.00993864
0.00993499
0.00993057
0.00992537
0.00991941
0.00991273
0.00990534
0.00989731
0.0098887
0.00987958
0.00987003
0.00986016
0.00985006
0.00983984
0.0098296
0.00981943
0.00980941
0.00979957
0.00978995
0.00978051
0.00977119
0.00976187
0.00975238
0.00974252
0.00973206
0.00972077
0.00970844
0.00969491
0.00968012
0.00966414
0.00964719
0.00962966
0.00961209
0.00959518
0.00957967
0.00956629
0.00955561
0.00954791
0.00954306
0.00954036
0.0095385
0.00953555
0.00952906
0.00951625
0.00949436
0.00946102
0.00941467
0.0093549
0.00928269
0.00920039
0.00911141
0.00901964
0.00892869
0.00884101
0.00875736
0.00867649
0.00859551
0.00851066
0.00841837
0.00831609
0.00820258
0.00807752
0.00794067
0.00779135
0.00762884
0.00745382
0.00726995
0.00708361
0.0069009
0.00672254
0.00654114
0.00634544
0.00613189
0.00591525
0.00572424
0.00557738
0.00545615
0.00530885
0.00509716
0.004842
0.00460212
0.00439434
0.00416945
0.00390246
0.00364592
0.00341705
0.00313978
0.00281336
0.00254736
0.00232393
0.00197222
0.0014627
0.000984506
0.000666059
0.000425013
0.000148288
0.0101459
0.0101439
0.0101399
0.0101338
0.0101256
0.0101151
0.0101023
0.0100872
0.0100698
0.0100502
0.0100283
0.0100042
0.00997811
0.00995005
0.00992018
0.00988864
0.0098556
0.00982124
0.00978572
0.00974923
0.00971193
0.009674
0.00963559
0.00959684
0.00955788
0.00951884
0.00947981
0.00944093
0.00940231
0.00936413
0.00932658
0.00928993
0.00925457
0.00922097
0.00918977
0.00916172
0.00913775
0.0091189
0.00910624
0.00910085
0.00910364
0.00911521
0.00913569
0.00916457
0.00920056
0.0092415
0.00928444
0.00932576
0.00936148
0.00938764
0.00940074
0.00939819
0.00937853
0.00934156
0.00928804
0.00921931
0.00913669
0.00904104
0.00893259
0.00881138
0.00867805
0.00853485
0.00838623
0.0082384
0.0080975
0.00796654
0.00784265
0.00771601
0.0075727
0.00740126
0.00720088
0.00698644
0.00678552
0.00662598
0.00651943
0.00645142
0.0063876
0.00629435
0.0061584
0.00598718
0.00578898
0.0055576
0.00528625
0.00499638
0.00473229
0.00451028
0.00429567
0.00406213
0.00383451
0.00360898
0.0033033
0.00289572
0.00251426
0.00225102
0.00199536
0.00159729
0.00110259
0.000682314
0.00039354
0.000140248
0.00983496
0.00983663
0.00983795
0.00983893
0.00983952
0.00983969
0.00983938
0.00983852
0.00983703
0.0098348
0.00983169
0.00982757
0.00982225
0.00981554
0.00980723
0.00979709
0.00978486
0.00977029
0.00975312
0.00973308
0.00970994
0.00968349
0.00965357
0.00962009
0.00958301
0.00954244
0.00949858
0.00945178
0.00940253
0.00935153
0.0092996
0.00924778
0.00919724
0.00914928
0.00910531
0.00906676
0.00903501
0.00901131
0.00899662
0.00899153
0.00899608
0.00900964
0.00903077
0.00905718
0.00908567
0.0091123
0.00913257
0.00914185
0.00913586
0.00911129
0.0090665
0.00900199
0.00892075
0.0088281
0.00873112
0.00863745
0.00855378
0.00848417
0.00842869
0.00838281
0.00833799
0.00828342
0.00820864
0.00810645
0.00797493
0.00781799
0.00764412
0.00746398
0.00728786
0.00712417
0.00697906
0.00685632
0.0067559
0.00667106
0.00658661
0.00648232
0.00634306
0.00617038
0.00598384
0.00580496
0.00563388
0.00544471
0.00521456
0.00495986
0.00472821
0.00454094
0.00436317
0.00415969
0.003951
0.00375161
0.00348647
0.00307459
0.00258193
0.00216887
0.00187694
0.00158339
0.00119217
0.000763917
0.000409087
0.000132192
0.00890176
0.00890071
0.00889896
0.00889648
0.00889322
0.00888915
0.00888424
0.00887846
0.00887175
0.00886409
0.00885543
0.00884573
0.00883494
0.00882301
0.00880992
0.00879561
0.00878004
0.0087632
0.00874505
0.00872557
0.00870477
0.00868265
0.00865923
0.00863455
0.00860867
0.00858167
0.00855366
0.00852479
0.00849524
0.00846525
0.00843513
0.00840527
0.00837612
0.00834827
0.0083224
0.00829927
0.00827976
0.00826478
0.0082553
0.00825218
0.00825619
0.00826786
0.00828738
0.0083145
0.00834847
0.00838793
0.008431
0.00847522
0.00851777
0.00855558
0.00858552
0.00860464
0.00861031
0.00860026
0.00857264
0.00852594
0.00845897
0.00837099
0.00826208
0.00813376
0.00798979
0.0078368
0.00768423
0.00754313
0.00742358
0.00733109
0.00726327
0.00720858
0.00714887
0.00706597
0.00695047
0.00680808
0.00665888
0.00652741
0.00642774
0.00635305
0.00627868
0.00617866
0.00604298
0.00587912
0.00569519
0.00548464
0.00523604
0.00496047
0.00469561
0.00446693
0.00425612
0.00403635
0.00382759
0.00366114
0.00348253
0.0031675
0.00268015
0.00215221
0.00174257
0.00145895
0.00118163
0.000835255
0.000464803
0.00014055
0.00842339
0.00842271
0.00842204
0.00842138
0.00842068
0.00841987
0.00841888
0.00841757
0.00841579
0.00841336
0.00841006
0.00840563
0.00839979
0.00839223
0.00838261
0.00837058
0.00835578
0.00833786
0.00831647
0.0082913
0.00826209
0.00822862
0.00819078
0.00814853
0.00810199
0.00805136
0.00799704
0.00793958
0.0078797
0.00781834
0.00775658
0.00769574
0.00763727
0.00758279
0.00753401
0.00749271
0.0074606
0.00743924
0.00742991
0.00743343
0.00744997
0.00747889
0.00751858
0.00756631
0.00761827
0.00766966
0.00771497
0.00774843
0.00776473
0.00775969
0.00773117
0.00767968
0.00760881
0.00752514
0.00743752
0.00735568
0.00728838
0.00724129
0.00721517
0.00720494
0.00720007
0.00718654
0.00715007
0.0070799
0.00697186
0.00682982
0.00666476
0.00649192
0.00632734
0.00618508
0.00607612
0.00600815
0.00598444
0.00600081
0.00604192
0.00608133
0.00608943
0.00604746
0.00595762
0.00583783
0.00570125
0.00553966
0.00533303
0.00508027
0.00481221
0.00455919
0.0043096
0.0040278
0.00372167
0.00345387
0.00325047
0.0030286
0.00267313
0.002184
0.00169397
0.00132366
0.00106018
0.000802843
0.000493068
0.000158928
0.00741712
0.00741785
0.00741929
0.00742146
0.00742441
0.00742812
0.00743257
0.00743769
0.00744337
0.00744948
0.00745582
0.00746215
0.00746822
0.00747369
0.00747822
0.00748143
0.00748292
0.00748229
0.00747916
0.00747316
0.00746398
0.00745137
0.00743519
0.00741537
0.00739201
0.0073653
0.00733559
0.00730333
0.00726912
0.00723361
0.00719755
0.00716167
0.00712669
0.00709325
0.00706188
0.00703296
0.00700671
0.00698319
0.00696231
0.00694388
0.00692762
0.00691325
0.00690047
0.00688907
0.00687886
0.00686968
0.00686137
0.0068537
0.00684631
0.00683866
0.00683004
0.00681953
0.006806
0.00678807
0.00676408
0.00673195
0.00668919
0.00663296
0.0065604
0.00646939
0.00635965
0.00623405
0.00609962
0.00596765
0.0058523
0.00576745
0.0057225
0.00571839
0.00574605
0.00578879
0.00582849
0.00585308
0.005861
0.00585892
0.00585305
0.00583981
0.00580409
0.00572887
0.00560984
0.00546098
0.00530268
0.00514221
0.00496928
0.00477509
0.0045705
0.00437074
0.00415828
0.00388312
0.00352528
0.00314696
0.00284427
0.00263358
0.00241654
0.00208581
0.00164964
0.00122275
0.000899272
0.000664038
0.000433462
0.000154689
0.00626454
0.0062661
0.00626724
0.00626789
0.00626799
0.00626743
0.00626614
0.00626402
0.00626097
0.0062569
0.0062517
0.0062453
0.00623759
0.00622851
0.00621799
0.00620597
0.00619244
0.00617738
0.00616082
0.00614281
0.00612342
0.00610278
0.00608101
0.0060583
0.00603483
0.00601082
0.00598649
0.00596208
0.00593782
0.00591397
0.00589075
0.0058684
0.0058472
0.0058274
0.00580933
0.00579335
0.00577991
0.00576952
0.00576275
0.00576019
0.00576242
0.00576986
0.00578269
0.00580067
0.00582299
0.00584814
0.00587386
0.00589716
0.00591451
0.00592226
0.0059171
0.00589674
0.00586055
0.00581
0.00574888
0.0056829
0.00561886
0.00556323
0.00552056
0.00549213
0.00547515
0.00546318
0.00544773
0.00542066
0.00537684
0.00531585
0.00524212
0.00516335
0.00508801
0.00502339
0.00497505
0.00494784
0.00494642
0.0049733
0.00502397
0.00508236
0.00512212
0.00511701
0.00505583
0.00494954
0.00482141
0.00468568
0.00453623
0.00436074
0.00416585
0.00397659
0.00379862
0.00358758
0.0032813
0.00287751
0.00246391
0.0021448
0.00193518
0.00174637
0.00148411
0.00114584
0.000809823
0.000541592
0.000330948
0.000119502
0.00480703
0.00480361
0.00480314
0.00480576
0.00481156
0.00482059
0.00483278
0.00484801
0.00486605
0.00488657
0.00490915
0.00493327
0.00495832
0.00498359
0.00500832
0.00503169
0.00505283
0.00507092
0.00508514
0.00509476
0.00509917
0.0050979
0.00509073
0.00507763
0.00505885
0.00503494
0.00500673
0.00497532
0.00494203
0.00490837
0.00487595
0.00484637
0.00482109
0.00480134
0.004788
0.00478141
0.00478141
0.00478716
0.00479724
0.00480963
0.00482188
0.00483122
0.00483484
0.0048301
0.00481485
0.00478761
0.00474787
0.00469616
0.0046342
0.00456479
0.0044917
0.00441936
0.00435246
0.00429544
0.00425182
0.00422354
0.00421034
0.0042093
0.00421483
0.00421922
0.00421394
0.00419167
0.00414869
0.004087
0.00401525
0.00394769
0.00390077
0.00388808
0.00391529
0.00397744
0.00406042
0.0041466
0.00422206
0.00428105
0.00432447
0.00435307
0.00436091
0.00433581
0.00426853
0.0041628
0.00403479
0.00389893
0.00375367
0.00358621
0.0033964
0.00321104
0.00306003
0.00292953
0.00275025
0.0024546
0.00205567
0.00165763
0.00137147
0.00121723
0.00111463
0.000967533
0.00074865
0.000502345
0.000280619
9.09185e-05
0.00463158
0.00463585
0.00463726
0.00463564
0.00463087
0.00462287
0.0046116
0.0045971
0.00457945
0.00455883
0.00453548
0.00450973
0.00448198
0.00445274
0.00442257
0.00439213
0.00436216
0.00433343
0.00430676
0.00428299
0.00426293
0.00424735
0.00423693
0.00423221
0.00423354
0.00424103
0.00425451
0.00427348
0.00429711
0.00432417
0.00435308
0.00438193
0.00440858
0.0044307
0.00444597
0.00445223
0.00444767
0.00443103
0.00440185
0.00436054
0.00430859
0.00424848
0.00418365
0.00411821
0.00405661
0.00400309
0.00396116
0.00393302
0.0039191
0.00391775
0.00392529
0.00393631
0.00394442
0.00394315
0.00392711
0.00389288
0.00383973
0.00376964
0.00368689
0.00359701
0.00350568
0.00341781
0.0033372
0.00326695
0.00321029
0.00317136
0.00315503
0.00316552
0.00320407
0.00326698
0.00334539
0.0034278
0.00350439
0.00357041
0.00362577
0.0036701
0.00369683
0.00369223
0.00364297
0.00354748
0.00342013
0.00328011
0.00313219
0.00295983
0.00274459
0.00249718
0.00226364
0.00208733
0.001958
0.00180681
0.00156694
0.00124569
0.00093108
0.000719061
0.000631591
0.000604716
0.000551279
0.000430389
0.000261319
8.45228e-05
0.00204248
0.00204165
0.00204549
0.00205416
0.00206777
0.00208629
0.00210963
0.00213754
0.00216969
0.0022056
0.00224469
0.00228622
0.00232937
0.00237321
0.00241672
0.00245884
0.00249848
0.00253456
0.00256606
0.00259209
0.00261191
0.002625
0.00263111
0.00263031
0.00262303
0.00261007
0.00259264
0.00257227
0.00255084
0.00253045
0.00251335
0.00250176
0.00249775
0.00250305
0.00251888
0.00254576
0.00258342
0.00263069
0.00268543
0.00274468
0.0028047
0.00286127
0.00290992
0.00294632
0.00296663
0.00296786
0.00294818
0.00290715
0.00284581
0.00276673
0.00267385
0.00257232
0.00246819
0.00236804
0.00227854
0.00220593
0.00215534
0.00213008
0.00213083
0.00215511
0.00219706
0.00224798
0.00229775
0.00233698
0.00235962
0.00236486
0.00235777
0.00234755
0.00234392
0.00235276
0.00237316
0.0023978
0.00241711
0.00242501
0.0024226
0.00241644
0.00241216
0.00240821
0.00239591
0.00236727
0.00232343
0.00227286
0.00221692
0.00213562
0.00199395
0.00177333
0.00150312
0.00125524
0.00109379
0.00101962
0.000965599
0.000854833
0.000670259
0.000469096
0.000329069
0.000279747
0.000282311
0.00026887
0.000197329
7.34179e-05
0.00224839
0.00224461
0.00223714
0.00222585
0.00221069
0.00219168
0.0021689
0.00214255
0.00211291
0.00208035
0.00204536
0.00200852
0.00197053
0.00193217
0.00189433
0.00185797
0.00182412
0.00179386
0.00176827
0.00174842
0.00173534
0.00172994
0.00173299
0.00174506
0.00176647
0.00179723
0.00183697
0.00188494
0.00193994
0.00200033
0.00206401
0.00212847
0.00219084
0.00224802
0.00229676
0.0023339
0.00235652
0.00236223
0.0023494
0.00231737
0.00226673
0.00219941
0.00211876
0.00202947
0.00193733
0.00184881
0.00177049
0.00170835
0.00166697
0.00164881
0.00165359
0.00167801
0.00171586
0.00175858
0.00179633
0.00181942
0.0018198
0.00179244
0.00173624
0.00165421
0.00155291
0.00144129
0.00132924
0.00122635
0.00114107
0.0010804
0.00104969
0.00105202
0.001087
0.0011491
0.00122678
0.00130381
0.00136342
0.00139438
0.00139576
0.00137696
0.00135156
0.00132836
0.00130608
0.00127731
0.00123909
0.00119993
0.00117276
0.0011556
0.00111814
0.00101433
0.00082026
0.000567899
0.000338499
0.000210982
0.000204261
0.000264382
0.000309555
0.000293157
0.000229786
0.00016692
0.000135323
0.000124917
0.000101784
4.31473e-05
0.00111161
0.00111995
0.00113045
0.00114309
0.00115784
0.00117458
0.00119318
0.00121341
0.00123502
0.0012577
0.00128107
0.00130473
0.00132823
0.0013511
0.00137286
0.001393
0.00141107
0.00142661
0.00143925
0.00144867
0.00145464
0.00145705
0.00145593
0.00145143
0.00144384
0.00143362
0.00142136
0.00140777
0.00139366
0.0013799
0.00136738
0.00135695
0.00134937
0.00134525
0.00134499
0.0013487
0.00135624
0.00136711
0.00138052
0.00139539
0.00141043
0.00142418
0.00143517
0.00144198
0.00144334
0.00143825
0.00142595
0.00140598
0.00137811
0.00134226
0.00129847
0.00124683
0.00118756
0.00112113
0.00104853
0.000971511
0.000892835
0.000816242
0.000746162
0.000687003
0.000642145
0.000612839
0.000597434
0.000591327
0.000587935
0.000580593
0.000564815
0.000539968
0.000509369
0.000478411
0.000451322
0.000428277
0.000404856
0.000374819
0.000334981
0.00028885
0.000245617
0.000213969
0.000194916
0.000180309
0.000160574
0.000136721
0.000124682
0.000143048
0.000189814
0.000228706
0.00020448
8.39014e-05
-0.000108015
-0.000291019
-0.000377303
-0.000329899
-0.000185606
-2.51777e-05
8.24759e-05
0.000117062
0.000101722
7.06662e-05
4.20751e-05
1.53316e-05
-0.00111784
-0.00112719
-0.00113571
-0.00114328
-0.00114973
-0.00115493
-0.00115871
-0.00116091
-0.00116136
-0.00115991
-0.0011564
-0.00115068
-0.00114262
-0.0011321
-0.00111905
-0.00110338
-0.00108506
-0.00106409
-0.0010405
-0.00101435
-0.000985733
-0.000954783
-0.000921655
-0.000886528
-0.000849598
-0.000811071
-0.000771159
-0.000730075
-0.000688029
-0.000645235
-0.000601911
-0.000558294
-0.000514655
-0.000471316
-0.000428671
-0.000387203
-0.000347498
-0.00031024
-0.000276197
-0.000246185
-0.000221002
-0.000201348
-0.000187727
-0.000180344
-0.000179019
-0.000183134
-0.000191639
-0.000203135
-0.000216047
-0.000228863
-0.000240423
-0.000250199
-0.000258481
-0.000266406
-0.000275763
-0.000288557
-0.000306396
-0.000329835
-0.000357875
-0.000387836
-0.000415777
-0.000437448
-0.00044958
-0.000451106
-0.000443784
-0.000431865
-0.000420742
-0.00041508
-0.000417279
-0.000427189
-0.000443387
-0.000465344
-0.000494907
-0.000535494
-0.00058873
-0.000650459
-0.000709661
-0.000752914
-0.000773177
-0.00077693
-0.000782304
-0.000806018
-0.000846697
-0.00087885
-0.000867166
-0.000794829
-0.000684139
-0.000588567
-0.00055646
-0.000592356
-0.000648265
-0.000655065
-0.000571006
-0.00040972
-0.000227734
-8.46999e-05
-8.61889e-06
1.10854e-05
5.1253e-06
-5.12586e-08
0.000348907
0.00035481
0.000357524
0.00035686
0.000352678
0.0003449
0.000333516
0.0003186
0.00030031
0.0002789
0.000254724
0.000228235
0.000199986
0.000170623
0.000140879
0.000111554
8.34993e-05
5.75893e-05
3.4692e-05
1.56315e-05
1.14678e-06
-8.15238e-06
-1.18313e-05
-9.67529e-06
-1.73049e-06
1.1662e-05
2.98431e-05
5.18264e-05
7.63067e-05
0.000101688
0.000126137
0.000147651
0.000164158
0.000173628
0.000174201
0.00016432
0.000142867