/*--------------------------------*- C++ -*----------------------------------*\
  =========                 |
  \\      /  F ield         | OpenFOAM: The Open Source CFD Toolbox
   \\    /   O peration     | Website:  https://openfoam.org
    \\  /    A nd           | Version:  9
     \\/     M anipulation  |
\*---------------------------------------------------------------------------*/
FoamFile
{
    format      ascii;
    class       volScalarField;
    location    "97200";
    object      ddt0(T);
}
// * * * * * * * * * * * * * * * * * * * * * * * * * * * * * * * * * * * * * //

dimensions      [0 0 -1 1 0 0 0];

internalField   nonuniform List<scalar> 
100
(
0.000634522
0.000634699
0.000635054
0.000635585
0.000636294
0.000637178
0.000638239
0.000639475
0.000640886
0.00064247
0.000644228
0.000646158
0.000648259
0.000650531
0.000652971
0.000655578
0.000658352
0.00066129
0.000664391
0.000667653
0.000671075
0.000674654
0.000678388
0.000682276
0.000686314
0.000690501
0.000694835
0.000699312
0.00070393
0.000708685
0.000713577
0.0007186
0.000723752
0.000729029
0.000734429
0.000739948
0.000745581
0.000751326
0.000757178
0.000763134
0.000769188
0.000775337
0.000781576
0.000787901
0.000794307
0.000800789
0.000807341
0.000813959
0.000820638
0.000827372
0.000834154
0.00084098
0.000847843
0.000854738
0.000861657
0.000868594
0.000875544
0.000882498
0.000889449
0.000896392
0.000903317
0.000910219
0.000917088
0.000923916
0.000930697
0.000937421
0.00094408
0.000950665
0.000957167
0.000963577
0.000969886
0.000976084
0.000982161
0.000988107
0.000993913
0.000999566
0.00100506
0.00101038
0.00101551
0.00102045
0.00102518
0.0010297
0.00103398
0.00103802
0.0010418
0.00104531
0.00104855
0.00105148
0.00105411
0.00105642
0.00105839
0.00106001
0.00106126
0.00106213
0.00106261
0.00106268
0.00106232
0.00106152
0.00106026
0.00105853
)
;

boundaryField
{
    left
    {
        type            calculated;
        value           uniform 0.000634522;
    }
    right
    {
        type            calculated;
        value           uniform 0.00105742;
    }
    frontAndBack
    {
        type            empty;
    }
    top_bottom
    {
        type            calculated;
        value           nonuniform List<scalar> 
200
(
0.000634522
0.000634699
0.000635054
0.000635585
0.000636294
0.000637178
0.000638239
0.000639475
0.000640886
0.00064247
0.000644228
0.000646158
0.000648259
0.000650531
0.000652971
0.000655578
0.000658352
0.00066129
0.000664391
0.000667653
0.000671075
0.000674654
0.000678388
0.000682276
0.000686314
0.000690501
0.000694835
0.000699312
0.00070393
0.000708685
0.000713577
0.0007186
0.000723752
0.000729029
0.000734429
0.000739948
0.000745581
0.000751326
0.000757178
0.000763134
0.000769188
0.000775337
0.000781576
0.000787901
0.000794307
0.000800789
0.000807341
0.000813959
0.000820638
0.000827372
0.000834154
0.00084098
0.000847843
0.000854738
0.000861657
0.000868594
0.000875544
0.000882498
0.000889449
0.000896392
0.000903317
0.000910219
0.000917088
0.000923916
0.000930697
0.000937421
0.00094408
0.000950665
0.000957167
0.000963577
0.000969886
0.000976084
0.000982161
0.000988107
0.000993913
0.000999566
0.00100506
0.00101038
0.00101551
0.00102045
0.00102518
0.0010297
0.00103398
0.00103802
0.0010418
0.00104531
0.00104855
0.00105148
0.00105411
0.00105642
0.00105839
0.00106001
0.00106126
0.00106213
0.00106261
0.00106268
0.00106232
0.00106152
0.00106026
0.00105853
0.000634522
0.000634699
0.000635054
0.000635585
0.000636294
0.000637178
0.000638239
0.000639475
0.000640886
0.00064247
0.000644228
0.000646158
0.000648259
0.000650531
0.000652971
0.000655578
0.000658352
0.00066129
0.000664391
0.000667653
0.000671075
0.000674654
0.000678388
0.000682276
0.000686314
0.000690501
0.000694835
0.000699312
0.00070393
0.000708685
0.000713577
0.0007186
0.000723752
0.000729029
0.000734429
0.000739948
0.000745581
0.000751326
0.000757178
0.000763134
0.000769188
0.000775337
0.000781576
0.000787901
0.000794307
0.000800789
0.000807341
0.000813959
0.000820638
0.000827372
0.000834154
0.00084098
0.000847843
0.000854738
0.000861657
0.000868594
0.000875544
0.000882498
0.000889449
0.000896392
0.000903317
0.000910219
0.000917088
0.000923916
0.000930697
0.000937421
0.00094408
0.000950665
0.000957167
0.000963577
0.000969886
0.000976084
0.000982161
0.000988107
0.000993913
0.000999566
0.00100506
0.00101038
0.00101551
0.00102045
0.00102518
0.0010297
0.00103398
0.00103802
0.0010418
0.00104531
0.00104855
0.00105148
0.00105411
0.00105642
0.00105839
0.00106001
0.00106126
0.00106213
0.00106261
0.00106268
0.00106232
0.00106152
0.00106026
0.00105853
)
;
    }
}


// ************************************************************************* //
