/*--------------------------------*- C++ -*----------------------------------*\
  =========                 |
  \\      /  F ield         | OpenFOAM: The Open Source CFD Toolbox
   \\    /   O peration     | Website:  https://openfoam.org
    \\  /    A nd           | Version:  9
     \\/     M anipulation  |
\*---------------------------------------------------------------------------*/
FoamFile
{
    format      ascii;
    class       volScalarField;
    location    "97200";
    object      gradTx;
}
// * * * * * * * * * * * * * * * * * * * * * * * * * * * * * * * * * * * * * //

dimensions      [0 -1 0 1 0 0 0];

internalField   nonuniform List<scalar> 
100
(
-498.89
-496.671
-494.45
-492.228
-490.004
-487.777
-485.547
-483.313
-481.075
-478.831
-476.582
-474.327
-472.065
-469.796
-467.519
-465.233
-462.939
-460.634
-458.32
-455.995
-453.659
-451.311
-448.951
-446.579
-444.193
-441.793
-439.379
-436.95
-434.507
-432.047
-429.572
-427.079
-424.57
-422.044
-419.5
-416.937
-414.357
-411.757
-409.138
-406.499
-403.84
-401.162
-398.462
-395.742
-393.001
-390.238
-387.454
-384.648
-381.821
-378.971
-376.099
-373.204
-370.287
-367.348
-364.385
-361.4
-358.393
-355.362
-352.309
-349.234
-346.135
-343.015
-339.872
-336.707
-333.52
-330.311
-327.081
-323.829
-320.556
-317.263
-313.95
-310.617
-307.265
-303.893
-300.504
-297.096
-293.671
-290.23
-286.772
-283.299
-279.812
-276.311
-272.797
-269.271
-265.734
-262.186
-258.629
-255.064
-251.492
-247.914
-244.331
-240.744
-237.155
-233.566
-229.976
-226.389
-222.804
-219.225
-215.652
-212.087
)
;

boundaryField
{
    left
    {
        type            calculated;
        value           uniform -500;
    }
    right
    {
        type            calculated;
        value           uniform -210.307;
    }
    frontAndBack
    {
        type            empty;
    }
    top_bottom
    {
        type            calculated;
        value           nonuniform List<scalar> 
200
(
-498.89
-496.671
-494.45
-492.228
-490.004
-487.777
-485.547
-483.313
-481.075
-478.831
-476.582
-474.327
-472.065
-469.796
-467.519
-465.233
-462.939
-460.634
-458.32
-455.995
-453.659
-451.311
-448.951
-446.579
-444.193
-441.793
-439.379
-436.95
-434.507
-432.047
-429.572
-427.079
-424.57
-422.044
-419.5
-416.937
-414.357
-411.757
-409.138
-406.499
-403.84
-401.162
-398.462
-395.742
-393.001
-390.238
-387.454
-384.648
-381.821
-378.971
-376.099
-373.204
-370.287
-367.348
-364.385
-361.4
-358.393
-355.362
-352.309
-349.234
-346.135
-343.015
-339.872
-336.707
-333.52
-330.311
-327.081
-323.829
-320.556
-317.263
-313.95
-310.617
-307.265
-303.893
-300.504
-297.096
-293.671
-290.23
-286.772
-283.299
-279.812
-276.311
-272.797
-269.271
-265.734
-262.186
-258.629
-255.064
-251.492
-247.914
-244.331
-240.744
-237.155
-233.566
-229.976
-226.389
-222.804
-219.225
-215.652
-212.087
-498.89
-496.671
-494.45
-492.228
-490.004
-487.777
-485.547
-483.313
-481.075
-478.831
-476.582
-474.327
-472.065
-469.796
-467.519
-465.233
-462.939
-460.634
-458.32
-455.995
-453.659
-451.311
-448.951
-446.579
-444.193
-441.793
-439.379
-436.95
-434.507
-432.047
-429.572
-427.079
-424.57
-422.044
-419.5
-416.937
-414.357
-411.757
-409.138
-406.499
-403.84
-401.162
-398.462
-395.742
-393.001
-390.238
-387.454
-384.648
-381.821
-378.971
-376.099
-373.204
-370.287
-367.348
-364.385
-361.4
-358.393
-355.362
-352.309
-349.234
-346.135
-343.015
-339.872
-336.707
-333.52
-330.311
-327.081
-323.829
-320.556
-317.263
-313.95
-310.617
-307.265
-303.893
-300.504
-297.096
-293.671
-290.23
-286.772
-283.299
-279.812
-276.311
-272.797
-269.271
-265.734
-262.186
-258.629
-255.064
-251.492
-247.914
-244.331
-240.744
-237.155
-233.566
-229.976
-226.389
-222.804
-219.225
-215.652
-212.087
)
;
    }
}


// ************************************************************************* //
