/*--------------------------------*- C++ -*----------------------------------*\
  =========                 |
  \\      /  F ield         | OpenFOAM: The Open Source CFD Toolbox
   \\    /   O peration     | Website:  https://openfoam.org
    \\  /    A nd           | Version:  9
     \\/     M anipulation  |
\*---------------------------------------------------------------------------*/
FoamFile
{
    format      ascii;
    class       volScalarField;
    location    "97200";
    object      T;
}
// * * * * * * * * * * * * * * * * * * * * * * * * * * * * * * * * * * * * * //

dimensions      [0 0 0 1 0 0 0];

internalField   nonuniform List<scalar> 
100
(
380.508
379.512
378.521
377.534
376.552
375.574
374.601
373.632
372.668
371.708
370.752
369.802
368.855
367.913
366.976
366.043
365.115
364.191
363.272
362.358
361.448
360.544
359.643
358.748
357.857
356.971
356.09
355.213
354.342
353.475
352.614
351.757
350.905
350.059
349.217
348.381
347.55
346.723
345.902
345.087
344.276
343.471
342.672
341.878
341.089
340.306
339.528
338.756
337.989
337.229
336.473
335.724
334.981
334.243
333.511
332.785
332.066
331.352
330.644
329.943
329.247
328.558
327.875
327.199
326.528
325.865
325.207
324.556
323.912
323.274
322.643
322.018
321.4
320.789
320.185
319.587
318.996
318.412
317.835
317.265
316.702
316.146
315.597
315.055
314.52
313.992
313.471
312.957
312.451
311.951
311.459
310.974
310.496
310.026
309.562
309.106
308.656
308.214
307.78
307.352
)
;

boundaryField
{
    left
    {
        type            fixedGradient;
        gradient        uniform 500;
    }
    right
    {
        type            uniformFixedValue;
        uniformValue    
        {
            type            sine;
            amplitude       
            {
                type            constant;
                value           20;
            }
            frequency       1.1574e-05;
            start           0;
            level           
            {
                type            constant;
                value           293;
            }
        }
        value           uniform 307.141;
    }
    frontAndBack
    {
        type            empty;
    }
    top_bottom
    {
        type            zeroGradient;
    }
}


// ************************************************************************* //
