/*--------------------------------*- C++ -*----------------------------------*\
  =========                 |
  \\      /  F ield         | OpenFOAM: The Open Source CFD Toolbox
   \\    /   O peration     | Website:  https://openfoam.org
    \\  /    A nd           | Version:  9
     \\/     M anipulation  |
\*---------------------------------------------------------------------------*/
FoamFile
{
    format      ascii;
    class       volScalarField;
    location    "97200";
    object      T_0;
}
// * * * * * * * * * * * * * * * * * * * * * * * * * * * * * * * * * * * * * //

dimensions      [0 0 0 1 0 0 0];

internalField   nonuniform List<scalar> 
100
(
380.277
379.282
378.29
377.304
376.321
375.343
374.369
373.4
372.435
371.475
370.519
369.567
368.62
367.677
366.739
365.805
364.876
363.952
363.032
362.116
361.205
360.299
359.397
358.5
357.608
356.721
355.838
354.96
354.087
353.219
352.355
351.497
350.644
349.795
348.952
348.113
347.28
346.452
345.629
344.811
343.999
343.191
342.39
341.593
340.802
340.017
339.237
338.462
337.693
336.93
336.173
335.421
334.675
333.935
333.201
332.473
331.75
331.034
330.324
329.62
328.922
328.231
327.546
326.867
326.194
325.528
324.868
324.215
323.568
322.928
322.295
321.668
321.048
320.435
319.829
319.229
318.637
318.051
317.472
316.9
316.336
315.778
315.228
314.684
314.148
313.619
313.097
312.582
312.075
311.575
311.082
310.597
310.118
309.648
309.184
308.728
308.279
307.837
307.403
306.976
)
;

boundaryField
{
    left
    {
        type            fixedGradient;
        gradient        uniform 500;
    }
    right
    {
        type            uniformFixedValue;
        uniformValue    
        {
            type            sine;
            amplitude       
            {
                type            constant;
                value           20;
            }
            frequency       1.1574e-05;
            start           0;
            level           
            {
                type            constant;
                value           293;
            }
        }
        value           uniform 306.766;
    }
    frontAndBack
    {
        type            empty;
    }
    top_bottom
    {
        type            zeroGradient;
    }
}


// ************************************************************************* //
