/*--------------------------------*- C++ -*----------------------------------*\
  =========                 |
  \\      /  F ield         | OpenFOAM: The Open Source CFD Toolbox
   \\    /   O peration     | Website:  https://openfoam.org
    \\  /    A nd           | Version:  9
     \\/     M anipulation  |
\*---------------------------------------------------------------------------*/
FoamFile
{
    format      ascii;
    class       volScalarField;
    location    "111600";
    object      ddt0(T);
}
// * * * * * * * * * * * * * * * * * * * * * * * * * * * * * * * * * * * * * //

dimensions      [0 0 -1 1 0 0 0];

internalField   nonuniform List<scalar> 
100
(
0.000734056
0.000733957
0.000733758
0.00073346
0.000733062
0.000732563
0.000731963
0.000731261
0.000730455
0.000729545
0.000728529
0.000727406
0.000726175
0.000724833
0.000723378
0.000721809
0.000720124
0.000718319
0.000716394
0.000714344
0.000712168
0.000709862
0.000707424
0.00070485
0.000702137
0.000699282
0.00069628
0.000693129
0.000689824
0.000686361
0.000682737
0.000678946
0.000674985
0.000670849
0.000666534
0.000662033
0.000657344
0.000652459
0.000647375
0.000642086
0.000636586
0.00063087
0.000624932
0.000618766
0.000612366
0.000605726
0.00059884
0.000591702
0.000584304
0.000576641
0.000568705
0.00056049
0.000551989
0.000543194
0.000534099
0.000524696
0.000514978
0.000504938
0.000494567
0.000483858
0.000472803
0.000461394
0.000449624
0.000437484
0.000424965
0.00041206
0.000398761
0.000385058
0.000370943
0.000356408
0.000341444
0.000326041
0.000310192
0.000293888
0.000277119
0.000259876
0.00024215
0.000223933
0.000205214
0.000185985
0.000166237
0.00014596
0.000125144
0.000103781
8.18613e-05
5.93751e-05
3.63132e-05
1.26661e-05
-1.15755e-05
-3.64212e-05
-6.18802e-05
-8.79621e-05
-0.000114676
-0.000142032
-0.000170038
-0.000198704
-0.00022804
-0.000258055
-0.000288757
-0.000320155
)
;

boundaryField
{
    left
    {
        type            calculated;
        value           uniform 0.000734056;
    }
    right
    {
        type            calculated;
        value           uniform -0.000336207;
    }
    frontAndBack
    {
        type            empty;
    }
    top_bottom
    {
        type            calculated;
        value           nonuniform List<scalar> 
200
(
0.000734056
0.000733957
0.000733758
0.00073346
0.000733062
0.000732563
0.000731963
0.000731261
0.000730455
0.000729545
0.000728529
0.000727406
0.000726175
0.000724833
0.000723378
0.000721809
0.000720124
0.000718319
0.000716394
0.000714344
0.000712168
0.000709862
0.000707424
0.00070485
0.000702137
0.000699282
0.00069628
0.000693129
0.000689824
0.000686361
0.000682737
0.000678946
0.000674985
0.000670849
0.000666534
0.000662033
0.000657344
0.000652459
0.000647375
0.000642086
0.000636586
0.00063087
0.000624932
0.000618766
0.000612366
0.000605726
0.00059884
0.000591702
0.000584304
0.000576641
0.000568705
0.00056049
0.000551989
0.000543194
0.000534099
0.000524696
0.000514978
0.000504938
0.000494567
0.000483858
0.000472803
0.000461394
0.000449624
0.000437484
0.000424965
0.00041206
0.000398761
0.000385058
0.000370943
0.000356408
0.000341444
0.000326041
0.000310192
0.000293888
0.000277119
0.000259876
0.00024215
0.000223933
0.000205214
0.000185985
0.000166237
0.00014596
0.000125144
0.000103781
8.18613e-05
5.93751e-05
3.63132e-05
1.26661e-05
-1.15755e-05
-3.64212e-05
-6.18802e-05
-8.79621e-05
-0.000114676
-0.000142032
-0.000170038
-0.000198704
-0.00022804
-0.000258055
-0.000288757
-0.000320155
0.000734056
0.000733957
0.000733758
0.00073346
0.000733062
0.000732563
0.000731963
0.000731261
0.000730455
0.000729545
0.000728529
0.000727406
0.000726175
0.000724833
0.000723378
0.000721809
0.000720124
0.000718319
0.000716394
0.000714344
0.000712168
0.000709862
0.000707424
0.00070485
0.000702137
0.000699282
0.00069628
0.000693129
0.000689824
0.000686361
0.000682737
0.000678946
0.000674985
0.000670849
0.000666534
0.000662033
0.000657344
0.000652459
0.000647375
0.000642086
0.000636586
0.00063087
0.000624932
0.000618766
0.000612366
0.000605726
0.00059884
0.000591702
0.000584304
0.000576641
0.000568705
0.00056049
0.000551989
0.000543194
0.000534099
0.000524696
0.000514978
0.000504938
0.000494567
0.000483858
0.000472803
0.000461394
0.000449624
0.000437484
0.000424965
0.00041206
0.000398761
0.000385058
0.000370943
0.000356408
0.000341444
0.000326041
0.000310192
0.000293888
0.000277119
0.000259876
0.00024215
0.000223933
0.000205214
0.000185985
0.000166237
0.00014596
0.000125144
0.000103781
8.18613e-05
5.93751e-05
3.63132e-05
1.26661e-05
-1.15755e-05
-3.64212e-05
-6.18802e-05
-8.79621e-05
-0.000114676
-0.000142032
-0.000170038
-0.000198704
-0.00022804
-0.000258055
-0.000288757
-0.000320155
)
;
    }
}


// ************************************************************************* //
