/*--------------------------------*- C++ -*----------------------------------*\
  =========                 |
  \\      /  F ield         | OpenFOAM: The Open Source CFD Toolbox
   \\    /   O peration     | Website:  https://openfoam.org
    \\  /    A nd           | Version:  9
     \\/     M anipulation  |
\*---------------------------------------------------------------------------*/
FoamFile
{
    format      ascii;
    class       volScalarField;
    location    "111600";
    object      gradTx;
}
// * * * * * * * * * * * * * * * * * * * * * * * * * * * * * * * * * * * * * //

dimensions      [0 -1 0 1 0 0 0];

internalField   nonuniform List<scalar> 
100
(
-498.744
-496.231
-493.719
-491.209
-488.699
-486.191
-483.685
-481.182
-478.681
-476.183
-473.689
-471.199
-468.714
-466.233
-463.757
-461.287
-458.823
-456.365
-453.914
-451.471
-449.035
-446.608
-444.189
-441.78
-439.38
-436.99
-434.612
-432.244
-429.889
-427.545
-425.215
-422.898
-420.596
-418.308
-416.036
-413.78
-411.54
-409.318
-407.114
-404.929
-402.764
-400.618
-398.494
-396.392
-394.313
-392.257
-390.226
-388.22
-386.24
-384.288
-382.363
-380.468
-378.603
-376.769
-374.966
-373.198
-371.463
-369.764
-368.101
-366.476
-364.891
-363.345
-361.84
-360.379
-358.961
-357.589
-356.263
-354.985
-353.757
-352.58
-351.455
-350.384
-349.369
-348.411
-347.511
-346.671
-345.894
-345.18
-344.531
-343.949
-343.437
-342.995
-342.625
-342.33
-342.111
-341.97
-341.91
-341.931
-342.037
-342.229
-342.51
-342.881
-343.345
-343.904
-344.56
-345.315
-346.171
-347.132
-348.199
-349.375
)
;

boundaryField
{
    left
    {
        type            calculated;
        value           uniform -500;
    }
    right
    {
        type            calculated;
        value           uniform -349.99;
    }
    frontAndBack
    {
        type            empty;
    }
    top_bottom
    {
        type            calculated;
        value           nonuniform List<scalar> 
200
(
-498.744
-496.231
-493.719
-491.209
-488.699
-486.191
-483.685
-481.182
-478.681
-476.183
-473.689
-471.199
-468.714
-466.233
-463.757
-461.287
-458.823
-456.365
-453.914
-451.471
-449.035
-446.608
-444.189
-441.78
-439.38
-436.99
-434.612
-432.244
-429.889
-427.545
-425.215
-422.898
-420.596
-418.308
-416.036
-413.78
-411.54
-409.318
-407.114
-404.929
-402.764
-400.618
-398.494
-396.392
-394.313
-392.257
-390.226
-388.22
-386.24
-384.288
-382.363
-380.468
-378.603
-376.769
-374.966
-373.198
-371.463
-369.764
-368.101
-366.476
-364.891
-363.345
-361.84
-360.379
-358.961
-357.589
-356.263
-354.985
-353.757
-352.58
-351.455
-350.384
-349.369
-348.411
-347.511
-346.671
-345.894
-345.18
-344.531
-343.949
-343.437
-342.995
-342.625
-342.33
-342.111
-341.97
-341.91
-341.931
-342.037
-342.229
-342.51
-342.881
-343.345
-343.904
-344.56
-345.315
-346.171
-347.132
-348.199
-349.375
-498.744
-496.231
-493.719
-491.209
-488.699
-486.191
-483.685
-481.182
-478.681
-476.183
-473.689
-471.199
-468.714
-466.233
-463.757
-461.287
-458.823
-456.365
-453.914
-451.471
-449.035
-446.608
-444.189
-441.78
-439.38
-436.99
-434.612
-432.244
-429.889
-427.545
-425.215
-422.898
-420.596
-418.308
-416.036
-413.78
-411.54
-409.318
-407.114
-404.929
-402.764
-400.618
-398.494
-396.392
-394.313
-392.257
-390.226
-388.22
-386.24
-384.288
-382.363
-380.468
-378.603
-376.769
-374.966
-373.198
-371.463
-369.764
-368.101
-366.476
-364.891
-363.345
-361.84
-360.379
-358.961
-357.589
-356.263
-354.985
-353.757
-352.58
-351.455
-350.384
-349.369
-348.411
-347.511
-346.671
-345.894
-345.18
-344.531
-343.949
-343.437
-342.995
-342.625
-342.33
-342.111
-341.97
-341.91
-341.931
-342.037
-342.229
-342.51
-342.881
-343.345
-343.904
-344.56
-345.315
-346.171
-347.132
-348.199
-349.375
)
;
    }
}


// ************************************************************************* //
