/*--------------------------------*- C++ -*----------------------------------*\
  =========                 |
  \\      /  F ield         | OpenFOAM: The Open Source CFD Toolbox
   \\    /   O peration     | Website:  https://openfoam.org
    \\  /    A nd           | Version:  9
     \\/     M anipulation  |
\*---------------------------------------------------------------------------*/
FoamFile
{
    format      ascii;
    class       volScalarField;
    location    "111600";
    object      T;
}
// * * * * * * * * * * * * * * * * * * * * * * * * * * * * * * * * * * * * * //

dimensions      [0 0 0 1 0 0 0];

internalField   nonuniform List<scalar> 
100
(
391.105
390.11
389.12
388.135
387.155
386.18
385.21
384.245
383.285
382.33
381.381
380.436
379.496
378.561
377.631
376.706
375.786
374.87
373.96
373.055
372.154
371.259
370.368
369.482
368.601
367.724
366.853
365.986
365.124
364.266
363.414
362.566
361.722
360.883
360.049
359.219
358.394
357.573
356.756
355.944
355.137
354.333
353.534
352.739
351.949
351.162
350.38
349.601
348.827
348.056
347.29
346.527
345.768
345.012
344.261
343.513
342.768
342.027
341.289
340.554
339.823
339.095
338.37
337.647
336.928
336.212
335.498
334.786
334.078
333.371
332.667
331.966
331.266
330.568
329.872
329.178
328.486
327.795
327.105
326.416
325.729
325.043
324.357
323.672
322.988
322.304
321.62
320.936
320.252
319.568
318.883
318.198
317.512
316.824
316.136
315.446
314.755
314.062
313.366
312.669
)
;

boundaryField
{
    left
    {
        type            fixedGradient;
        gradient        uniform 500;
    }
    right
    {
        type            uniformFixedValue;
        uniformValue    
        {
            type            sine;
            amplitude       
            {
                type            constant;
                value           20;
            }
            frequency       1.1574e-05;
            start           0;
            level           
            {
                type            constant;
                value           293;
            }
        }
        value           uniform 312.319;
    }
    frontAndBack
    {
        type            empty;
    }
    top_bottom
    {
        type            zeroGradient;
    }
}


// ************************************************************************* //
