/*--------------------------------*- C++ -*----------------------------------*\
  =========                 |
  \\      /  F ield         | OpenFOAM: The Open Source CFD Toolbox
   \\    /   O peration     | Website:  https://openfoam.org
    \\  /    A nd           | Version:  9
     \\/     M anipulation  |
\*---------------------------------------------------------------------------*/
FoamFile
{
    format      ascii;
    class       volScalarField;
    location    "111600";
    object      T_0;
}
// * * * * * * * * * * * * * * * * * * * * * * * * * * * * * * * * * * * * * //

dimensions      [0 0 0 1 0 0 0];

internalField   nonuniform List<scalar> 
100
(
390.841
389.846
388.857
387.872
386.892
385.917
384.948
383.983
383.024
382.069
381.12
380.175
379.236
378.301
377.372
376.447
375.528
374.613
373.704
372.799
371.899
371.005
370.115
369.23
368.35
367.474
366.604
365.738
364.877
364.021
363.17
362.323
361.481
360.644
359.811
358.983
358.159
357.34
356.526
355.716
354.91
354.109
353.312
352.519
351.731
350.947
350.167
349.391
348.619
347.852
347.088
346.328
345.572
344.82
344.072
343.327
342.586
341.849
341.115
340.384
339.657
338.933
338.212
337.494
336.779
336.068
335.359
334.652
333.949
333.248
332.549
331.853
331.159
330.467
329.778
329.09
328.404
327.719
327.037
326.355
325.675
324.996
324.318
323.641
322.965
322.289
321.613
320.938
320.263
319.588
318.912
318.237
317.56
316.883
316.205
315.525
314.844
314.162
313.478
312.792
)
;

boundaryField
{
    left
    {
        type            fixedGradient;
        gradient        uniform 500;
    }
    right
    {
        type            uniformFixedValue;
        uniformValue    
        {
            type            sine;
            amplitude       
            {
                type            constant;
                value           20;
            }
            frequency       1.1574e-05;
            start           0;
            level           
            {
                type            constant;
                value           293;
            }
        }
        value           uniform 312.448;
    }
    frontAndBack
    {
        type            empty;
    }
    top_bottom
    {
        type            zeroGradient;
    }
}


// ************************************************************************* //
