/*--------------------------------*- C++ -*----------------------------------*\
  =========                 |
  \\      /  F ield         | OpenFOAM: The Open Source CFD Toolbox
   \\    /   O peration     | Website:  https://openfoam.org
    \\  /    A nd           | Version:  9
     \\/     M anipulation  |
\*---------------------------------------------------------------------------*/
FoamFile
{
    format      ascii;
    class       volScalarField;
    location    "144000";
    object      ddt0(T);
}
// * * * * * * * * * * * * * * * * * * * * * * * * * * * * * * * * * * * * * //

dimensions      [0 0 -1 1 0 0 0];

internalField   nonuniform List<scalar> 
100
(
-0.000485704
-0.000485881
-0.000486235
-0.000486767
-0.000487474
-0.000488358
-0.000489417
-0.00049065
-0.000492057
-0.000493636
-0.000495386
-0.000497307
-0.000499395
-0.000501651
-0.000504071
-0.000506654
-0.000509399
-0.000512302
-0.000515362
-0.000518576
-0.000521941
-0.000525456
-0.000529116
-0.000532919
-0.000536861
-0.00054094
-0.000545152
-0.000549493
-0.00055396
-0.000558548
-0.000563254
-0.000568073
-0.000573001
-0.000578034
-0.000583166
-0.000588394
-0.000593711
-0.000599114
-0.000604595
-0.000610151
-0.000615776
-0.000621463
-0.000627206
-0.000633001
-0.000638839
-0.000644716
-0.000650623
-0.000656556
-0.000662505
-0.000668465
-0.000674428
-0.000680386
-0.000686333
-0.000692259
-0.000698157
-0.000704019
-0.000709836
-0.0007156
-0.000721302
-0.000726932
-0.000732483
-0.000737944
-0.000743306
-0.000748559
-0.000753694
-0.000758699
-0.000763566
-0.000768283
-0.000772839
-0.000777225
-0.000781427
-0.000785437
-0.000789241
-0.000792828
-0.000796186
-0.000799303
-0.000802167
-0.000804765
-0.000807085
-0.000809113
-0.000810836
-0.000812241
-0.000813315
-0.000814043
-0.000814411
-0.000814406
-0.000814013
-0.000813217
-0.000812004
-0.000810358
-0.000808265
-0.000805708
-0.000802672
-0.000799141
-0.0007951
-0.000790531
-0.000785419
-0.000779747
-0.000773497
-0.000766653
)
;

boundaryField
{
    left
    {
        type            calculated;
        value           uniform -0.000485704;
    }
    right
    {
        type            calculated;
        value           uniform -0.000762926;
    }
    frontAndBack
    {
        type            empty;
    }
    top_bottom
    {
        type            calculated;
        value           nonuniform List<scalar> 
200
(
-0.000485704
-0.000485881
-0.000486235
-0.000486767
-0.000487474
-0.000488358
-0.000489417
-0.00049065
-0.000492057
-0.000493636
-0.000495386
-0.000497307
-0.000499395
-0.000501651
-0.000504071
-0.000506654
-0.000509399
-0.000512302
-0.000515362
-0.000518576
-0.000521941
-0.000525456
-0.000529116
-0.000532919
-0.000536861
-0.00054094
-0.000545152
-0.000549493
-0.00055396
-0.000558548
-0.000563254
-0.000568073
-0.000573001
-0.000578034
-0.000583166
-0.000588394
-0.000593711
-0.000599114
-0.000604595
-0.000610151
-0.000615776
-0.000621463
-0.000627206
-0.000633001
-0.000638839
-0.000644716
-0.000650623
-0.000656556
-0.000662505
-0.000668465
-0.000674428
-0.000680386
-0.000686333
-0.000692259
-0.000698157
-0.000704019
-0.000709836
-0.0007156
-0.000721302
-0.000726932
-0.000732483
-0.000737944
-0.000743306
-0.000748559
-0.000753694
-0.000758699
-0.000763566
-0.000768283
-0.000772839
-0.000777225
-0.000781427
-0.000785437
-0.000789241
-0.000792828
-0.000796186
-0.000799303
-0.000802167
-0.000804765
-0.000807085
-0.000809113
-0.000810836
-0.000812241
-0.000813315
-0.000814043
-0.000814411
-0.000814406
-0.000814013
-0.000813217
-0.000812004
-0.000810358
-0.000808265
-0.000805708
-0.000802672
-0.000799141
-0.0007951
-0.000790531
-0.000785419
-0.000779747
-0.000773497
-0.000766653
-0.000485704
-0.000485881
-0.000486235
-0.000486767
-0.000487474
-0.000488358
-0.000489417
-0.00049065
-0.000492057
-0.000493636
-0.000495386
-0.000497307
-0.000499395
-0.000501651
-0.000504071
-0.000506654
-0.000509399
-0.000512302
-0.000515362
-0.000518576
-0.000521941
-0.000525456
-0.000529116
-0.000532919
-0.000536861
-0.00054094
-0.000545152
-0.000549493
-0.00055396
-0.000558548
-0.000563254
-0.000568073
-0.000573001
-0.000578034
-0.000583166
-0.000588394
-0.000593711
-0.000599114
-0.000604595
-0.000610151
-0.000615776
-0.000621463
-0.000627206
-0.000633001
-0.000638839
-0.000644716
-0.000650623
-0.000656556
-0.000662505
-0.000668465
-0.000674428
-0.000680386
-0.000686333
-0.000692259
-0.000698157
-0.000704019
-0.000709836
-0.0007156
-0.000721302
-0.000726932
-0.000732483
-0.000737944
-0.000743306
-0.000748559
-0.000753694
-0.000758699
-0.000763566
-0.000768283
-0.000772839
-0.000777225
-0.000781427
-0.000785437
-0.000789241
-0.000792828
-0.000796186
-0.000799303
-0.000802167
-0.000804765
-0.000807085
-0.000809113
-0.000810836
-0.000812241
-0.000813315
-0.000814043
-0.000814411
-0.000814406
-0.000814013
-0.000813217
-0.000812004
-0.000810358
-0.000808265
-0.000805708
-0.000802672
-0.000799141
-0.0007951
-0.000790531
-0.000785419
-0.000779747
-0.000773497
-0.000766653
)
;
    }
}


// ************************************************************************* //
