/*--------------------------------*- C++ -*----------------------------------*\
  =========                 |
  \\      /  F ield         | OpenFOAM: The Open Source CFD Toolbox
   \\    /   O peration     | Website:  https://openfoam.org
    \\  /    A nd           | Version:  9
     \\/     M anipulation  |
\*---------------------------------------------------------------------------*/
FoamFile
{
    format      ascii;
    class       volScalarField;
    location    "144000";
    object      gradTx;
}
// * * * * * * * * * * * * * * * * * * * * * * * * * * * * * * * * * * * * * //

dimensions      [0 -1 0 1 0 0 0];

internalField   nonuniform List<scalar> 
100
(
-500.853
-502.559
-504.266
-505.975
-507.686
-509.399
-511.116
-512.836
-514.561
-516.29
-518.025
-519.767
-521.515
-523.27
-525.032
-526.803
-528.583
-530.372
-532.171
-533.981
-535.801
-537.632
-539.476
-541.332
-543.2
-545.082
-546.977
-548.887
-550.81
-552.749
-554.703
-556.673
-558.659
-560.661
-562.68
-564.715
-566.768
-568.839
-570.927
-573.033
-575.158
-577.301
-579.463
-581.643
-583.842
-586.061
-588.298
-590.554
-592.83
-595.125
-597.439
-599.773
-602.125
-604.497
-606.887
-609.297
-611.724
-614.171
-616.635
-619.117
-621.617
-624.134
-626.669
-629.219
-631.786
-634.368
-636.966
-639.578
-642.204
-644.844
-647.496
-650.161
-652.836
-655.523
-658.219
-660.924
-663.638
-666.358
-669.085
-671.817
-674.552
-677.291
-680.032
-682.773
-685.513
-688.252
-690.987
-693.718
-696.443
-699.159
-701.867
-704.564
-707.248
-709.918
-712.572
-715.209
-717.825
-720.421
-722.992
-725.538
)
;

boundaryField
{
    left
    {
        type            calculated;
        value           uniform -500;
    }
    right
    {
        type            calculated;
        value           uniform -726.804;
    }
    frontAndBack
    {
        type            empty;
    }
    top_bottom
    {
        type            calculated;
        value           nonuniform List<scalar> 
200
(
-500.853
-502.559
-504.266
-505.975
-507.686
-509.399
-511.116
-512.836
-514.561
-516.29
-518.025
-519.767
-521.515
-523.27
-525.032
-526.803
-528.583
-530.372
-532.171
-533.981
-535.801
-537.632
-539.476
-541.332
-543.2
-545.082
-546.977
-548.887
-550.81
-552.749
-554.703
-556.673
-558.659
-560.661
-562.68
-564.715
-566.768
-568.839
-570.927
-573.033
-575.158
-577.301
-579.463
-581.643
-583.842
-586.061
-588.298
-590.554
-592.83
-595.125
-597.439
-599.773
-602.125
-604.497
-606.887
-609.297
-611.724
-614.171
-616.635
-619.117
-621.617
-624.134
-626.669
-629.219
-631.786
-634.368
-636.966
-639.578
-642.204
-644.844
-647.496
-650.161
-652.836
-655.523
-658.219
-660.924
-663.638
-666.358
-669.085
-671.817
-674.552
-677.291
-680.032
-682.773
-685.513
-688.252
-690.987
-693.718
-696.443
-699.159
-701.867
-704.564
-707.248
-709.918
-712.572
-715.209
-717.825
-720.421
-722.992
-725.538
-500.853
-502.559
-504.266
-505.975
-507.686
-509.399
-511.116
-512.836
-514.561
-516.29
-518.025
-519.767
-521.515
-523.27
-525.032
-526.803
-528.583
-530.372
-532.171
-533.981
-535.801
-537.632
-539.476
-541.332
-543.2
-545.082
-546.977
-548.887
-550.81
-552.749
-554.703
-556.673
-558.659
-560.661
-562.68
-564.715
-566.768
-568.839
-570.927
-573.033
-575.158
-577.301
-579.463
-581.643
-583.842
-586.061
-588.298
-590.554
-592.83
-595.125
-597.439
-599.773
-602.125
-604.497
-606.887
-609.297
-611.724
-614.171
-616.635
-619.117
-621.617
-624.134
-626.669
-629.219
-631.786
-634.368
-636.966
-639.578
-642.204
-644.844
-647.496
-650.161
-652.836
-655.523
-658.219
-660.924
-663.638
-666.358
-669.085
-671.817
-674.552
-677.291
-680.032
-682.773
-685.513
-688.252
-690.987
-693.718
-696.443
-699.159
-701.867
-704.564
-707.248
-709.918
-712.572
-715.209
-717.825
-720.421
-722.992
-725.538
)
;
    }
}


// ************************************************************************* //
