/*--------------------------------*- C++ -*----------------------------------*\
  =========                 |
  \\      /  F ield         | OpenFOAM: The Open Source CFD Toolbox
   \\    /   O peration     | Website:  https://openfoam.org
    \\  /    A nd           | Version:  9
     \\/     M anipulation  |
\*---------------------------------------------------------------------------*/
FoamFile
{
    format      ascii;
    class       volScalarField;
    location    "144000";
    object      T;
}
// * * * * * * * * * * * * * * * * * * * * * * * * * * * * * * * * * * * * * //

dimensions      [0 0 0 1 0 0 0];

internalField   nonuniform List<scalar> 
100
(
395.762
394.759
393.752
392.742
391.728
390.711
389.69
388.666
387.639
386.608
385.574
384.536
383.495
382.45
381.402
380.35
379.294
378.235
377.173
376.107
375.037
373.964
372.886
371.806
370.721
369.633
368.541
367.445
366.345
365.242
364.134
363.023
361.908
360.788
359.665
358.538
357.406
356.27
355.131
353.987
352.839
351.686
350.529
349.368
348.203
347.033
345.859
344.68
343.496
342.308
341.116
339.919
338.717
337.51
336.299
335.083
333.862
332.636
331.405
330.169
328.928
327.683
326.432
325.176
323.915
322.649
321.378
320.101
318.819
317.532
316.24
314.942
313.639
312.331
311.017
309.698
308.373
307.043
305.708
304.367
303.021
301.669
300.312
298.949
297.58
296.207
294.827
293.443
292.053
290.657
289.256
287.85
286.438
285.021
283.598
282.17
280.737
279.299
277.856
276.407
)
;

boundaryField
{
    left
    {
        type            fixedGradient;
        gradient        uniform 500;
    }
    right
    {
        type            uniformFixedValue;
        uniformValue    
        {
            type            sine;
            amplitude       
            {
                type            constant;
                value           20;
            }
            frequency       1.1574e-05;
            start           0;
            level           
            {
                type            constant;
                value           293;
            }
        }
        value           uniform 275.68;
    }
    frontAndBack
    {
        type            empty;
    }
    top_bottom
    {
        type            zeroGradient;
    }
}


// ************************************************************************* //
