/*--------------------------------*- C++ -*----------------------------------*\
  =========                 |
  \\      /  F ield         | OpenFOAM: The Open Source CFD Toolbox
   \\    /   O peration     | Website:  https://openfoam.org
    \\  /    A nd           | Version:  9
     \\/     M anipulation  |
\*---------------------------------------------------------------------------*/
FoamFile
{
    format      ascii;
    class       volScalarField;
    location    "144000";
    object      T_0;
}
// * * * * * * * * * * * * * * * * * * * * * * * * * * * * * * * * * * * * * //

dimensions      [0 0 0 1 0 0 0];

internalField   nonuniform List<scalar> 
100
(
395.939
394.935
393.929
392.919
391.905
390.888
389.868
388.845
387.818
386.788
385.754
384.717
383.676
382.632
381.585
380.534
379.48
378.422
377.36
376.295
375.226
374.154
373.078
371.999
370.916
369.829
368.738
367.644
366.546
365.444
364.338
363.229
362.115
360.997
359.876
358.75
357.621
356.487
355.349
354.207
353.061
351.91
350.756
349.597
348.433
347.265
346.093
344.916
343.735
342.549
341.359
340.163
338.964
337.759
336.55
335.335
334.116
332.893
331.664
330.43
329.191
327.947
326.698
325.444
324.185
322.92
321.651
320.376
319.095
317.81
316.519
315.223
313.921
312.614
311.301
309.983
308.659
307.33
305.995
304.655
303.309
301.958
300.6
299.238
297.869
296.496
295.116
293.731
292.34
290.944
289.542
288.134
286.721
285.303
283.878
282.449
281.014
279.573
278.127
276.676
)
;

boundaryField
{
    left
    {
        type            fixedGradient;
        gradient        uniform 500;
    }
    right
    {
        type            uniformFixedValue;
        uniformValue    
        {
            type            sine;
            amplitude       
            {
                type            constant;
                value           20;
            }
            frequency       1.1574e-05;
            start           0;
            level           
            {
                type            constant;
                value           293;
            }
        }
        value           uniform 275.948;
    }
    frontAndBack
    {
        type            empty;
    }
    top_bottom
    {
        type            zeroGradient;
    }
}


// ************************************************************************* //
