/*--------------------------------*- C++ -*----------------------------------*\
  =========                 |
  \\      /  F ield         | OpenFOAM: The Open Source CFD Toolbox
   \\    /   O peration     | Website:  https://openfoam.org
    \\  /    A nd           | Version:  9
     \\/     M anipulation  |
\*---------------------------------------------------------------------------*/
FoamFile
{
    format      ascii;
    class       volScalarField;
    location    "140400";
    object      ddt0(T);
}
// * * * * * * * * * * * * * * * * * * * * * * * * * * * * * * * * * * * * * //

dimensions      [0 0 -1 1 0 0 0];

internalField   nonuniform List<scalar> 
100
(
-0.000376238
-0.000376479
-0.000376961
-0.000377684
-0.000378647
-0.00037985
-0.000381292
-0.000382974
-0.000384893
-0.000387049
-0.000389442
-0.000392069
-0.000394931
-0.000398025
-0.00040135
-0.000404905
-0.000408687
-0.000412696
-0.000416929
-0.000421384
-0.000426059
-0.000430953
-0.000436061
-0.000441383
-0.000446915
-0.000452655
-0.0004586
-0.000464747
-0.000471092
-0.000477633
-0.000484366
-0.000491288
-0.000498394
-0.000505682
-0.000513147
-0.000520786
-0.000528594
-0.000536566
-0.000544699
-0.000552987
-0.000561426
-0.000570011
-0.000578737
-0.000587599
-0.000596591
-0.000605708
-0.000614944
-0.000624293
-0.000633749
-0.000643306
-0.000652958
-0.000662697
-0.000672518
-0.000682414
-0.000692376
-0.000702399
-0.000712475
-0.000722595
-0.000732753
-0.00074294
-0.000753148
-0.000763369
-0.000773594
-0.000783814
-0.000794021
-0.000804204
-0.000814355
-0.000824465
-0.000834523
-0.000844519
-0.000854443
-0.000864284
-0.000874033
-0.000883677
-0.000893206
-0.000902609
-0.000911873
-0.000920988
-0.00092994
-0.000938718
-0.000947309
-0.0009557
-0.000963878
-0.000971831
-0.000979544
-0.000987003
-0.000994196
-0.00100111
-0.00100772
-0.00101402
-0.00102
-0.00102564
-0.00103092
-0.00103583
-0.00104034
-0.00104446
-0.00104815
-0.0010514
-0.0010542
-0.00105652
)
;

boundaryField
{
    left
    {
        type            calculated;
        value           uniform -0.000376238;
    }
    right
    {
        type            calculated;
        value           uniform -0.00105744;
    }
    frontAndBack
    {
        type            empty;
    }
    top_bottom
    {
        type            calculated;
        value           nonuniform List<scalar> 
200
(
-0.000376238
-0.000376479
-0.000376961
-0.000377684
-0.000378647
-0.00037985
-0.000381292
-0.000382974
-0.000384893
-0.000387049
-0.000389442
-0.000392069
-0.000394931
-0.000398025
-0.00040135
-0.000404905
-0.000408687
-0.000412696
-0.000416929
-0.000421384
-0.000426059
-0.000430953
-0.000436061
-0.000441383
-0.000446915
-0.000452655
-0.0004586
-0.000464747
-0.000471092
-0.000477633
-0.000484366
-0.000491288
-0.000498394
-0.000505682
-0.000513147
-0.000520786
-0.000528594
-0.000536566
-0.000544699
-0.000552987
-0.000561426
-0.000570011
-0.000578737
-0.000587599
-0.000596591
-0.000605708
-0.000614944
-0.000624293
-0.000633749
-0.000643306
-0.000652958
-0.000662697
-0.000672518
-0.000682414
-0.000692376
-0.000702399
-0.000712475
-0.000722595
-0.000732753
-0.00074294
-0.000753148
-0.000763369
-0.000773594
-0.000783814
-0.000794021
-0.000804204
-0.000814355
-0.000824465
-0.000834523
-0.000844519
-0.000854443
-0.000864284
-0.000874033
-0.000883677
-0.000893206
-0.000902609
-0.000911873
-0.000920988
-0.00092994
-0.000938718
-0.000947309
-0.0009557
-0.000963878
-0.000971831
-0.000979544
-0.000987003
-0.000994196
-0.00100111
-0.00100772
-0.00101402
-0.00102
-0.00102564
-0.00103092
-0.00103583
-0.00104034
-0.00104446
-0.00104815
-0.0010514
-0.0010542
-0.00105652
-0.000376238
-0.000376479
-0.000376961
-0.000377684
-0.000378647
-0.00037985
-0.000381292
-0.000382974
-0.000384893
-0.000387049
-0.000389442
-0.000392069
-0.000394931
-0.000398025
-0.00040135
-0.000404905
-0.000408687
-0.000412696
-0.000416929
-0.000421384
-0.000426059
-0.000430953
-0.000436061
-0.000441383
-0.000446915
-0.000452655
-0.0004586
-0.000464747
-0.000471092
-0.000477633
-0.000484366
-0.000491288
-0.000498394
-0.000505682
-0.000513147
-0.000520786
-0.000528594
-0.000536566
-0.000544699
-0.000552987
-0.000561426
-0.000570011
-0.000578737
-0.000587599
-0.000596591
-0.000605708
-0.000614944
-0.000624293
-0.000633749
-0.000643306
-0.000652958
-0.000662697
-0.000672518
-0.000682414
-0.000692376
-0.000702399
-0.000712475
-0.000722595
-0.000732753
-0.00074294
-0.000753148
-0.000763369
-0.000773594
-0.000783814
-0.000794021
-0.000804204
-0.000814355
-0.000824465
-0.000834523
-0.000844519
-0.000854443
-0.000864284
-0.000874033
-0.000883677
-0.000893206
-0.000902609
-0.000911873
-0.000920988
-0.00092994
-0.000938718
-0.000947309
-0.0009557
-0.000963878
-0.000971831
-0.000979544
-0.000987003
-0.000994196
-0.00100111
-0.00100772
-0.00101402
-0.00102
-0.00102564
-0.00103092
-0.00103583
-0.00104034
-0.00104446
-0.00104815
-0.0010514
-0.0010542
-0.00105652
)
;
    }
}


// ************************************************************************* //
