/*--------------------------------*- C++ -*----------------------------------*\
  =========                 |
  \\      /  F ield         | OpenFOAM: The Open Source CFD Toolbox
   \\    /   O peration     | Website:  https://openfoam.org
    \\  /    A nd           | Version:  9
     \\/     M anipulation  |
\*---------------------------------------------------------------------------*/
FoamFile
{
    format      ascii;
    class       volScalarField;
    location    "140400";
    object      gradTx;
}
// * * * * * * * * * * * * * * * * * * * * * * * * * * * * * * * * * * * * * //

dimensions      [0 -1 0 1 0 0 0];

internalField   nonuniform List<scalar> 
100
(
-500.67
-502.011
-503.352
-504.696
-506.043
-507.393
-508.748
-510.108
-511.474
-512.847
-514.227
-515.616
-517.015
-518.423
-519.842
-521.273
-522.716
-524.172
-525.642
-527.126
-528.626
-530.142
-531.675
-533.225
-534.793
-536.381
-537.988
-539.615
-541.263
-542.933
-544.625
-546.34
-548.079
-549.842
-551.629
-553.442
-555.28
-557.145
-559.037
-560.956
-562.904
-564.879
-566.884
-568.918
-570.982
-573.076
-575.2
-577.356
-579.543
-581.761
-584.011
-586.294
-588.609
-590.957
-593.338
-595.752
-598.199
-600.68
-603.194
-605.741
-608.323
-610.938
-613.587
-616.269
-618.985
-621.735
-624.517
-627.333
-630.182
-633.064
-635.978
-638.924
-641.902
-644.912
-647.953
-651.024
-654.125
-657.256
-660.415
-663.603
-666.819
-670.061
-673.33
-676.624
-679.943
-683.285
-686.651
-690.037
-693.445
-696.872
-700.317
-703.78
-707.259
-710.752
-714.259
-717.778
-721.307
-724.845
-728.39
-731.941
)
;

boundaryField
{
    left
    {
        type            calculated;
        value           uniform -500;
    }
    right
    {
        type            calculated;
        value           uniform -733.718;
    }
    frontAndBack
    {
        type            empty;
    }
    top_bottom
    {
        type            calculated;
        value           nonuniform List<scalar> 
200
(
-500.67
-502.011
-503.352
-504.696
-506.043
-507.393
-508.748
-510.108
-511.474
-512.847
-514.227
-515.616
-517.015
-518.423
-519.842
-521.273
-522.716
-524.172
-525.642
-527.126
-528.626
-530.142
-531.675
-533.225
-534.793
-536.381
-537.988
-539.615
-541.263
-542.933
-544.625
-546.34
-548.079
-549.842
-551.629
-553.442
-555.28
-557.145
-559.037
-560.956
-562.904
-564.879
-566.884
-568.918
-570.982
-573.076
-575.2
-577.356
-579.543
-581.761
-584.011
-586.294
-588.609
-590.957
-593.338
-595.752
-598.199
-600.68
-603.194
-605.741
-608.323
-610.938
-613.587
-616.269
-618.985
-621.735
-624.517
-627.333
-630.182
-633.064
-635.978
-638.924
-641.902
-644.912
-647.953
-651.024
-654.125
-657.256
-660.415
-663.603
-666.819
-670.061
-673.33
-676.624
-679.943
-683.285
-686.651
-690.037
-693.445
-696.872
-700.317
-703.78
-707.259
-710.752
-714.259
-717.778
-721.307
-724.845
-728.39
-731.941
-500.67
-502.011
-503.352
-504.696
-506.043
-507.393
-508.748
-510.108
-511.474
-512.847
-514.227
-515.616
-517.015
-518.423
-519.842
-521.273
-522.716
-524.172
-525.642
-527.126
-528.626
-530.142
-531.675
-533.225
-534.793
-536.381
-537.988
-539.615
-541.263
-542.933
-544.625
-546.34
-548.079
-549.842
-551.629
-553.442
-555.28
-557.145
-559.037
-560.956
-562.904
-564.879
-566.884
-568.918
-570.982
-573.076
-575.2
-577.356
-579.543
-581.761
-584.011
-586.294
-588.609
-590.957
-593.338
-595.752
-598.199
-600.68
-603.194
-605.741
-608.323
-610.938
-613.587
-616.269
-618.985
-621.735
-624.517
-627.333
-630.182
-633.064
-635.978
-638.924
-641.902
-644.912
-647.953
-651.024
-654.125
-657.256
-660.415
-663.603
-666.819
-670.061
-673.33
-676.624
-679.943
-683.285
-686.651
-690.037
-693.445
-696.872
-700.317
-703.78
-707.259
-710.752
-714.259
-717.778
-721.307
-724.845
-728.39
-731.941
)
;
    }
}


// ************************************************************************* //
