/*--------------------------------*- C++ -*----------------------------------*\
  =========                 |
  \\      /  F ield         | OpenFOAM: The Open Source CFD Toolbox
   \\    /   O peration     | Website:  https://openfoam.org
    \\  /    A nd           | Version:  9
     \\/     M anipulation  |
\*---------------------------------------------------------------------------*/
FoamFile
{
    format      ascii;
    class       volScalarField;
    location    "140400";
    object      T;
}
// * * * * * * * * * * * * * * * * * * * * * * * * * * * * * * * * * * * * * //

dimensions      [0 0 0 1 0 0 0];

internalField   nonuniform List<scalar> 
100
(
397.366
396.363
395.358
394.35
393.339
392.325
391.309
390.29
389.269
388.244
387.217
386.188
385.155
384.119
383.081
382.04
380.996
379.949
378.899
377.847
376.791
375.732
374.67
373.605
372.537
371.466
370.392
369.314
368.233
367.149
366.062
364.971
363.876
362.778
361.677
360.572
359.463
358.351
357.235
356.115
354.991
353.863
352.731
351.596
350.456
349.312
348.163
347.011
345.854
344.693
343.527
342.357
341.182
340.002
338.818
337.629
336.435
335.236
334.032
332.823
331.609
330.39
329.165
327.936
326.7
325.46
324.213
322.962
321.704
320.441
319.172
317.897
316.616
315.329
314.037
312.738
311.432
310.121
308.803
307.479
306.149
304.812
303.469
302.119
300.762
299.399
298.029
296.652
295.269
293.879
292.481
291.077
289.666
288.248
286.823
285.391
283.952
282.506
281.053
279.593
)
;

boundaryField
{
    left
    {
        type            fixedGradient;
        gradient        uniform 500;
    }
    right
    {
        type            uniformFixedValue;
        uniformValue    
        {
            type            sine;
            amplitude       
            {
                type            constant;
                value           20;
            }
            frequency       1.1574e-05;
            start           0;
            level           
            {
                type            constant;
                value           293;
            }
        }
        value           uniform 278.859;
    }
    frontAndBack
    {
        type            empty;
    }
    top_bottom
    {
        type            zeroGradient;
    }
}


// ************************************************************************* //
