/*--------------------------------*- C++ -*----------------------------------*\
  =========                 |
  \\      /  F ield         | OpenFOAM: The Open Source CFD Toolbox
   \\    /   O peration     | Website:  https://openfoam.org
    \\  /    A nd           | Version:  9
     \\/     M anipulation  |
\*---------------------------------------------------------------------------*/
FoamFile
{
    format      ascii;
    class       volScalarField;
    location    "140400";
    object      T_0;
}
// * * * * * * * * * * * * * * * * * * * * * * * * * * * * * * * * * * * * * //

dimensions      [0 0 0 1 0 0 0];

internalField   nonuniform List<scalar> 
100
(
397.504
396.501
395.496
394.488
393.478
392.465
391.449
390.431
389.41
388.386
387.36
386.331
385.3
384.265
383.228
382.188
381.146
380.1
379.052
378.001
376.947
375.89
374.83
373.767
372.701
371.631
370.559
369.484
368.405
367.323
366.238
365.15
364.058
362.962
361.864
360.761
359.655
358.546
357.432
356.315
355.195
354.07
352.941
351.808
350.672
349.531
348.386
347.237
346.083
344.925
343.763
342.596
341.425
340.249
339.068
337.882
336.692
335.497
334.296
333.091
331.88
330.665
329.444
328.218
326.986
325.749
324.506
323.258
322.004
320.744
319.478
318.207
316.93
315.646
314.357
313.061
311.759
310.451
309.136
307.815
306.488
305.154
303.813
302.466
301.112
299.751
298.384
297.009
295.628
294.24
292.845
291.443
290.033
288.617
287.193
285.763
284.325
282.879
281.427
279.967
)
;

boundaryField
{
    left
    {
        type            fixedGradient;
        gradient        uniform 500;
    }
    right
    {
        type            uniformFixedValue;
        uniformValue    
        {
            type            sine;
            amplitude       
            {
                type            constant;
                value           20;
            }
            frequency       1.1574e-05;
            start           0;
            level           
            {
                type            constant;
                value           293;
            }
        }
        value           uniform 279.234;
    }
    frontAndBack
    {
        type            empty;
    }
    top_bottom
    {
        type            zeroGradient;
    }
}


// ************************************************************************* //
