/*--------------------------------*- C++ -*----------------------------------*\
  =========                 |
  \\      /  F ield         | OpenFOAM: The Open Source CFD Toolbox
   \\    /   O peration     | Website:  https://openfoam.org
    \\  /    A nd           | Version:  9
     \\/     M anipulation  |
\*---------------------------------------------------------------------------*/
FoamFile
{
    format      ascii;
    class       volScalarField;
    location    "104400";
    object      ddt0(T);
}
// * * * * * * * * * * * * * * * * * * * * * * * * * * * * * * * * * * * * * //

dimensions      [0 0 -1 1 0 0 0];

internalField   nonuniform List<scalar> 
100
(
0.000758369
0.000758422
0.000758528
0.000758686
0.000758896
0.000759158
0.000759471
0.000759834
0.000760246
0.000760706
0.000761212
0.000761764
0.00076236
0.000762997
0.000763675
0.000764391
0.000765144
0.00076593
0.000766748
0.000767595
0.000768468
0.000769365
0.000770282
0.000771217
0.000772166
0.000773126
0.000774093
0.000775064
0.000776035
0.000777001
0.000777959
0.000778904
0.000779832
0.000780739
0.000781619
0.000782468
0.00078328
0.000784051
0.000784775
0.000785446
0.00078606
0.00078661
0.000787089
0.000787493
0.000787815
0.000788048
0.000788185
0.000788221
0.000788148
0.000787958
0.000787645
0.000787202
0.00078662
0.000785892
0.00078501
0.000783967
0.000782753
0.00078136
0.000779781
0.000778005
0.000776025
0.000773831
0.000771414
0.000768765
0.000765874
0.000762731
0.000759326
0.00075565
0.000751693
0.000747443
0.00074289
0.000738024
0.000732834
0.000727309
0.000721437
0.000715207
0.000708608
0.000701628
0.000694255
0.000686477
0.000678282
0.000669658
0.000660592
0.000651071
0.000641083
0.000630615
0.000619654
0.000608186
0.000596198
0.000583676
0.000570608
0.000556979
0.000542775
0.000527982
0.000512586
0.000496572
0.000479926
0.000462634
0.000444681
0.000426052
)
;

boundaryField
{
    left
    {
        type            calculated;
        value           uniform 0.000758369;
    }
    right
    {
        type            calculated;
        value           uniform 0.000416392;
    }
    frontAndBack
    {
        type            empty;
    }
    top_bottom
    {
        type            calculated;
        value           nonuniform List<scalar> 
200
(
0.000758369
0.000758422
0.000758528
0.000758686
0.000758896
0.000759158
0.000759471
0.000759834
0.000760246
0.000760706
0.000761212
0.000761764
0.00076236
0.000762997
0.000763675
0.000764391
0.000765144
0.00076593
0.000766748
0.000767595
0.000768468
0.000769365
0.000770282
0.000771217
0.000772166
0.000773126
0.000774093
0.000775064
0.000776035
0.000777001
0.000777959
0.000778904
0.000779832
0.000780739
0.000781619
0.000782468
0.00078328
0.000784051
0.000784775
0.000785446
0.00078606
0.00078661
0.000787089
0.000787493
0.000787815
0.000788048
0.000788185
0.000788221
0.000788148
0.000787958
0.000787645
0.000787202
0.00078662
0.000785892
0.00078501
0.000783967
0.000782753
0.00078136
0.000779781
0.000778005
0.000776025
0.000773831
0.000771414
0.000768765
0.000765874
0.000762731
0.000759326
0.00075565
0.000751693
0.000747443
0.00074289
0.000738024
0.000732834
0.000727309
0.000721437
0.000715207
0.000708608
0.000701628
0.000694255
0.000686477
0.000678282
0.000669658
0.000660592
0.000651071
0.000641083
0.000630615
0.000619654
0.000608186
0.000596198
0.000583676
0.000570608
0.000556979
0.000542775
0.000527982
0.000512586
0.000496572
0.000479926
0.000462634
0.000444681
0.000426052
0.000758369
0.000758422
0.000758528
0.000758686
0.000758896
0.000759158
0.000759471
0.000759834
0.000760246
0.000760706
0.000761212
0.000761764
0.00076236
0.000762997
0.000763675
0.000764391
0.000765144
0.00076593
0.000766748
0.000767595
0.000768468
0.000769365
0.000770282
0.000771217
0.000772166
0.000773126
0.000774093
0.000775064
0.000776035
0.000777001
0.000777959
0.000778904
0.000779832
0.000780739
0.000781619
0.000782468
0.00078328
0.000784051
0.000784775
0.000785446
0.00078606
0.00078661
0.000787089
0.000787493
0.000787815
0.000788048
0.000788185
0.000788221
0.000788148
0.000787958
0.000787645
0.000787202
0.00078662
0.000785892
0.00078501
0.000783967
0.000782753
0.00078136
0.000779781
0.000778005
0.000776025
0.000773831
0.000771414
0.000768765
0.000765874
0.000762731
0.000759326
0.00075565
0.000751693
0.000747443
0.00074289
0.000738024
0.000732834
0.000727309
0.000721437
0.000715207
0.000708608
0.000701628
0.000694255
0.000686477
0.000678282
0.000669658
0.000660592
0.000651071
0.000641083
0.000630615
0.000619654
0.000608186
0.000596198
0.000583676
0.000570608
0.000556979
0.000542775
0.000527982
0.000512586
0.000496572
0.000479926
0.000462634
0.000444681
0.000426052
)
;
    }
}


// ************************************************************************* //
