/*--------------------------------*- C++ -*----------------------------------*\
  =========                 |
  \\      /  F ield         | OpenFOAM: The Open Source CFD Toolbox
   \\    /   O peration     | Website:  https://openfoam.org
    \\  /    A nd           | Version:  9
     \\/     M anipulation  |
\*---------------------------------------------------------------------------*/
FoamFile
{
    format      ascii;
    class       volScalarField;
    location    "104400";
    object      gradTx;
}
// * * * * * * * * * * * * * * * * * * * * * * * * * * * * * * * * * * * * * //

dimensions      [0 -1 0 1 0 0 0];

internalField   nonuniform List<scalar> 
100
(
-498.688
-496.064
-493.44
-490.816
-488.19
-485.565
-482.938
-480.31
-477.682
-475.052
-472.42
-469.787
-467.152
-464.516
-461.877
-459.237
-456.594
-453.949
-451.302
-448.652
-446
-443.346
-440.689
-438.029
-435.366
-432.701
-430.033
-427.363
-424.69
-422.014
-419.336
-416.655
-413.972
-411.287
-408.599
-405.909
-403.217
-400.524
-397.829
-395.132
-392.435
-389.736
-387.037
-384.337
-381.637
-378.938
-376.239
-373.541
-370.844
-368.149
-365.456
-362.766
-360.079
-357.396
-354.717
-352.042
-349.373
-346.71
-344.054
-341.405
-338.764
-336.132
-333.51
-330.898
-328.298
-325.709
-323.134
-320.573
-318.026
-315.496
-312.983
-310.488
-308.012
-305.557
-303.123
-300.713
-298.326
-295.965
-293.631
-291.325
-289.049
-286.805
-284.593
-282.415
-280.273
-278.169
-276.104
-274.08
-272.099
-270.163
-268.273
-266.432
-264.642
-262.903
-261.22
-259.593
-258.025
-256.518
-255.075
-253.697
)
;

boundaryField
{
    left
    {
        type            calculated;
        value           uniform -500;
    }
    right
    {
        type            calculated;
        value           uniform -253.025;
    }
    frontAndBack
    {
        type            empty;
    }
    top_bottom
    {
        type            calculated;
        value           nonuniform List<scalar> 
200
(
-498.688
-496.064
-493.44
-490.816
-488.19
-485.565
-482.938
-480.31
-477.682
-475.052
-472.42
-469.787
-467.152
-464.516
-461.877
-459.237
-456.594
-453.949
-451.302
-448.652
-446
-443.346
-440.689
-438.029
-435.366
-432.701
-430.033
-427.363
-424.69
-422.014
-419.336
-416.655
-413.972
-411.287
-408.599
-405.909
-403.217
-400.524
-397.829
-395.132
-392.435
-389.736
-387.037
-384.337
-381.637
-378.938
-376.239
-373.541
-370.844
-368.149
-365.456
-362.766
-360.079
-357.396
-354.717
-352.042
-349.373
-346.71
-344.054
-341.405
-338.764
-336.132
-333.51
-330.898
-328.298
-325.709
-323.134
-320.573
-318.026
-315.496
-312.983
-310.488
-308.012
-305.557
-303.123
-300.713
-298.326
-295.965
-293.631
-291.325
-289.049
-286.805
-284.593
-282.415
-280.273
-278.169
-276.104
-274.08
-272.099
-270.163
-268.273
-266.432
-264.642
-262.903
-261.22
-259.593
-258.025
-256.518
-255.075
-253.697
-498.688
-496.064
-493.44
-490.816
-488.19
-485.565
-482.938
-480.31
-477.682
-475.052
-472.42
-469.787
-467.152
-464.516
-461.877
-459.237
-456.594
-453.949
-451.302
-448.652
-446
-443.346
-440.689
-438.029
-435.366
-432.701
-430.033
-427.363
-424.69
-422.014
-419.336
-416.655
-413.972
-411.287
-408.599
-405.909
-403.217
-400.524
-397.829
-395.132
-392.435
-389.736
-387.037
-384.337
-381.637
-378.938
-376.239
-373.541
-370.844
-368.149
-365.456
-362.766
-360.079
-357.396
-354.717
-352.042
-349.373
-346.71
-344.054
-341.405
-338.764
-336.132
-333.51
-330.898
-328.298
-325.709
-323.134
-320.573
-318.026
-315.496
-312.983
-310.488
-308.012
-305.557
-303.123
-300.713
-298.326
-295.965
-293.631
-291.325
-289.049
-286.805
-284.593
-282.415
-280.273
-278.169
-276.104
-274.08
-272.099
-270.163
-268.273
-266.432
-264.642
-262.903
-261.22
-259.593
-258.025
-256.518
-255.075
-253.697
)
;
    }
}


// ************************************************************************* //
