/*--------------------------------*- C++ -*----------------------------------*\
  =========                 |
  \\      /  F ield         | OpenFOAM: The Open Source CFD Toolbox
   \\    /   O peration     | Website:  https://openfoam.org
    \\  /    A nd           | Version:  9
     \\/     M anipulation  |
\*---------------------------------------------------------------------------*/
FoamFile
{
    format      ascii;
    class       volScalarField;
    location    "104400";
    object      T;
}
// * * * * * * * * * * * * * * * * * * * * * * * * * * * * * * * * * * * * * //

dimensions      [0 0 0 1 0 0 0];

internalField   nonuniform List<scalar> 
100
(
385.647
384.653
383.663
382.679
381.7
380.726
379.758
378.794
377.836
376.884
375.936
374.994
374.057
373.125
372.199
371.278
370.362
369.452
368.546
367.646
366.752
365.862
364.978
364.1
363.226
362.358
361.495
360.638
359.786
358.939
358.098
357.262
356.431
355.606
354.786
353.972
353.162
352.359
351.56
350.767
349.98
349.198
348.421
347.65
346.884
346.123
345.368
344.618
343.874
343.135
342.401
341.673
340.95
340.233
339.52
338.814
338.112
337.416
336.725
336.04
335.36
334.685
334.015
333.351
332.692
332.038
331.389
330.745
330.107
329.473
328.845
328.221
327.603
326.989
326.38
325.777
325.178
324.583
323.994
323.409
322.828
322.253
321.681
321.114
320.551
319.993
319.439
318.889
318.342
317.8
317.262
316.727
316.196
315.669
315.144
314.624
314.106
313.592
313.08
312.571
)
;

boundaryField
{
    left
    {
        type            fixedGradient;
        gradient        uniform 500;
    }
    right
    {
        type            uniformFixedValue;
        uniformValue    
        {
            type            sine;
            amplitude       
            {
                type            constant;
                value           20;
            }
            frequency       1.1574e-05;
            start           0;
            level           
            {
                type            constant;
                value           293;
            }
        }
        value           uniform 312.318;
    }
    frontAndBack
    {
        type            empty;
    }
    top_bottom
    {
        type            zeroGradient;
    }
}


// ************************************************************************* //
