/*--------------------------------*- C++ -*----------------------------------*\
  =========                 |
  \\      /  F ield         | OpenFOAM: The Open Source CFD Toolbox
   \\    /   O peration     | Website:  https://openfoam.org
    \\  /    A nd           | Version:  9
     \\/     M anipulation  |
\*---------------------------------------------------------------------------*/
FoamFile
{
    format      ascii;
    class       volScalarField;
    location    "104400";
    object      T_0;
}
// * * * * * * * * * * * * * * * * * * * * * * * * * * * * * * * * * * * * * //

dimensions      [0 0 0 1 0 0 0];

internalField   nonuniform List<scalar> 
100
(
385.374
384.379
383.39
382.405
381.426
380.452
379.484
378.52
377.562
376.609
375.662
374.719
373.782
372.85
371.924
371.002
370.086
369.176
368.27
367.37
366.475
365.585
364.701
363.822
362.948
362.08
361.217
360.359
359.507
358.66
357.818
356.982
356.151
355.325
354.505
353.69
352.881
352.077
351.278
350.485
349.698
348.915
348.138
347.367
346.601
345.84
345.085
344.336
343.591
342.852
342.119
341.391
340.668
339.951
339.24
338.533
337.832
337.137
336.447
335.762
335.083
334.409
333.74
333.077
332.419
331.766
331.119
330.476
329.839
329.207
328.581
327.959
327.343
326.731
326.125
325.523
324.927
324.335
323.748
323.166
322.589
322.016
321.448
320.885
320.326
319.772
319.221
318.675
318.134
317.596
317.063
316.533
316.007
315.485
314.967
314.452
313.941
313.432
312.927
312.426
)
;

boundaryField
{
    left
    {
        type            fixedGradient;
        gradient        uniform 500;
    }
    right
    {
        type            uniformFixedValue;
        uniformValue    
        {
            type            sine;
            amplitude       
            {
                type            constant;
                value           20;
            }
            frequency       1.1574e-05;
            start           0;
            level           
            {
                type            constant;
                value           293;
            }
        }
        value           uniform 312.176;
    }
    frontAndBack
    {
        type            empty;
    }
    top_bottom
    {
        type            zeroGradient;
    }
}


// ************************************************************************* //
