/*--------------------------------*- C++ -*----------------------------------*\
  =========                 |
  \\      /  F ield         | OpenFOAM: The Open Source CFD Toolbox
   \\    /   O peration     | Website:  https://openfoam.org
    \\  /    A nd           | Version:  9
     \\/     M anipulation  |
\*---------------------------------------------------------------------------*/
FoamFile
{
    format      ascii;
    class       volScalarField;
    location    "18000";
    object      ddt0(T);
}
// * * * * * * * * * * * * * * * * * * * * * * * * * * * * * * * * * * * * * //

dimensions      [0 0 -1 1 0 0 0];

internalField   nonuniform List<scalar> 
100
(
0.00416807
0.00416735
0.00416591
0.00416374
0.00416085
0.00415723
0.00415289
0.00414783
0.00414204
0.00413553
0.00412829
0.00412032
0.00411162
0.00410219
0.00409203
0.00408115
0.00406952
0.00405717
0.00404407
0.00403024
0.00401567
0.00400036
0.00398431
0.00396752
0.00394998
0.00393169
0.00391266
0.00389287
0.00387234
0.00385105
0.003829
0.0038062
0.00378264
0.00375832
0.00373324
0.0037074
0.00368079
0.00365341
0.00362527
0.00359636
0.00356667
0.00353622
0.00350499
0.00347299
0.00344021
0.00340666
0.00337233
0.00333722
0.00330134
0.00326467
0.00322723
0.003189
0.00315
0.00311021
0.00306964
0.00302829
0.00298616
0.00294325
0.00289956
0.00285509
0.00280984
0.00276381
0.002717
0.00266942
0.00262106
0.00257193
0.00252202
0.00247134
0.00241989
0.00236767
0.00231468
0.00226093
0.00220641
0.00215113
0.00209509
0.00203829
0.00198073
0.00192242
0.00186336
0.00180355
0.001743
0.0016817
0.00161965
0.00155687
0.00149335
0.0014291
0.00136411
0.0012984
0.00123195
0.00116479
0.0010969
0.00102829
0.000958969
0.00088893
0.00081818
0.000746719
0.000674552
0.000601678
0.000528101
0.000453826
)
;

boundaryField
{
    left
    {
        type            calculated;
        value           uniform 0.00416807;
    }
    right
    {
        type            calculated;
        value           uniform 0.000416335;
    }
    frontAndBack
    {
        type            empty;
    }
    top_bottom
    {
        type            calculated;
        value           nonuniform List<scalar> 
200
(
0.00416807
0.00416735
0.00416591
0.00416374
0.00416085
0.00415723
0.00415289
0.00414783
0.00414204
0.00413553
0.00412829
0.00412032
0.00411162
0.00410219
0.00409203
0.00408115
0.00406952
0.00405717
0.00404407
0.00403024
0.00401567
0.00400036
0.00398431
0.00396752
0.00394998
0.00393169
0.00391266
0.00389287
0.00387234
0.00385105
0.003829
0.0038062
0.00378264
0.00375832
0.00373324
0.0037074
0.00368079
0.00365341
0.00362527
0.00359636
0.00356667
0.00353622
0.00350499
0.00347299
0.00344021
0.00340666
0.00337233
0.00333722
0.00330134
0.00326467
0.00322723
0.003189
0.00315
0.00311021
0.00306964
0.00302829
0.00298616
0.00294325
0.00289956
0.00285509
0.00280984
0.00276381
0.002717
0.00266942
0.00262106
0.00257193
0.00252202
0.00247134
0.00241989
0.00236767
0.00231468
0.00226093
0.00220641
0.00215113
0.00209509
0.00203829
0.00198073
0.00192242
0.00186336
0.00180355
0.001743
0.0016817
0.00161965
0.00155687
0.00149335
0.0014291
0.00136411
0.0012984
0.00123195
0.00116479
0.0010969
0.00102829
0.000958969
0.00088893
0.00081818
0.000746719
0.000674552
0.000601678
0.000528101
0.000453826
0.00416807
0.00416735
0.00416591
0.00416374
0.00416085
0.00415723
0.00415289
0.00414783
0.00414204
0.00413553
0.00412829
0.00412032
0.00411162
0.00410219
0.00409203
0.00408115
0.00406952
0.00405717
0.00404407
0.00403024
0.00401567
0.00400036
0.00398431
0.00396752
0.00394998
0.00393169
0.00391266
0.00389287
0.00387234
0.00385105
0.003829
0.0038062
0.00378264
0.00375832
0.00373324
0.0037074
0.00368079
0.00365341
0.00362527
0.00359636
0.00356667
0.00353622
0.00350499
0.00347299
0.00344021
0.00340666
0.00337233
0.00333722
0.00330134
0.00326467
0.00322723
0.003189
0.00315
0.00311021
0.00306964
0.00302829
0.00298616
0.00294325
0.00289956
0.00285509
0.00280984
0.00276381
0.002717
0.00266942
0.00262106
0.00257193
0.00252202
0.00247134
0.00241989
0.00236767
0.00231468
0.00226093
0.00220641
0.00215113
0.00209509
0.00203829
0.00198073
0.00192242
0.00186336
0.00180355
0.001743
0.0016817
0.00161965
0.00155687
0.00149335
0.0014291
0.00136411
0.0012984
0.00123195
0.00116479
0.0010969
0.00102829
0.000958969
0.00088893
0.00081818
0.000746719
0.000674552
0.000601678
0.000528101
0.000453826
)
;
    }
}


// ************************************************************************* //
