/*--------------------------------*- C++ -*----------------------------------*\
  =========                 |
  \\      /  F ield         | OpenFOAM: The Open Source CFD Toolbox
   \\    /   O peration     | Website:  https://openfoam.org
    \\  /    A nd           | Version:  9
     \\/     M anipulation  |
\*---------------------------------------------------------------------------*/
FoamFile
{
    format      ascii;
    class       volScalarField;
    location    "18000";
    object      gradTx;
}
// * * * * * * * * * * * * * * * * * * * * * * * * * * * * * * * * * * * * * //

dimensions      [0 -1 0 1 0 0 0];

internalField   nonuniform List<scalar> 
100
(
-492.879
-478.638
-464.401
-450.17
-435.948
-421.737
-407.54
-393.36
-379.198
-365.057
-350.941
-336.85
-322.789
-308.759
-294.763
-280.803
-266.883
-253.004
-239.169
-225.381
-211.642
-197.955
-184.322
-170.746
-157.23
-143.775
-130.385
-117.063
-103.81
-90.6293
-77.5238
-64.496
-51.5483
-38.6834
-25.904
-13.2126
-0.61192
11.8955
24.3069
36.6197
48.8313
60.939
72.9401
84.8321
96.6122
108.278
119.826
131.255
142.561
153.742
164.795
175.717
186.507
197.16
207.675
218.049
228.279
238.362
248.296
258.078
267.705
277.176
286.486
295.634
304.616
313.431
322.075
330.546
338.841
346.957
354.893
362.644
370.21
377.586
384.771
391.761
398.555
405.15
411.542
417.73
423.711
429.482
435.04
440.384
445.511
450.418
455.102
459.561
463.793
467.795
471.565
475.1
478.397
481.454
484.269
486.839
489.162
491.236
493.057
494.623
)
;

boundaryField
{
    left
    {
        type            calculated;
        value           uniform -500;
    }
    right
    {
        type            calculated;
        value           uniform 495.342;
    }
    frontAndBack
    {
        type            empty;
    }
    top_bottom
    {
        type            calculated;
        value           nonuniform List<scalar> 
200
(
-492.879
-478.638
-464.401
-450.17
-435.948
-421.737
-407.54
-393.36
-379.198
-365.057
-350.941
-336.85
-322.789
-308.759
-294.763
-280.803
-266.883
-253.004
-239.169
-225.381
-211.642
-197.955
-184.322
-170.746
-157.23
-143.775
-130.385
-117.063
-103.81
-90.6293
-77.5238
-64.496
-51.5483
-38.6834
-25.904
-13.2126
-0.61192
11.8955
24.3069
36.6197
48.8313
60.939
72.9401
84.8321
96.6122
108.278
119.826
131.255
142.561
153.742
164.795
175.717
186.507
197.16
207.675
218.049
228.279
238.362
248.296
258.078
267.705
277.176
286.486
295.634
304.616
313.431
322.075
330.546
338.841
346.957
354.893
362.644
370.21
377.586
384.771
391.761
398.555
405.15
411.542
417.73
423.711
429.482
435.04
440.384
445.511
450.418
455.102
459.561
463.793
467.795
471.565
475.1
478.397
481.454
484.269
486.839
489.162
491.236
493.057
494.623
-492.879
-478.638
-464.401
-450.17
-435.948
-421.737
-407.54
-393.36
-379.198
-365.057
-350.941
-336.85
-322.789
-308.759
-294.763
-280.803
-266.883
-253.004
-239.169
-225.381
-211.642
-197.955
-184.322
-170.746
-157.23
-143.775
-130.385
-117.063
-103.81
-90.6293
-77.5238
-64.496
-51.5483
-38.6834
-25.904
-13.2126
-0.61192
11.8955
24.3069
36.6197
48.8313
60.939
72.9401
84.8321
96.6122
108.278
119.826
131.255
142.561
153.742
164.795
175.717
186.507
197.16
207.675
218.049
228.279
238.362
248.296
258.078
267.705
277.176
286.486
295.634
304.616
313.431
322.075
330.546
338.841
346.957
354.893
362.644
370.21
377.586
384.771
391.761
398.555
405.15
411.542
417.73
423.711
429.482
435.04
440.384
445.511
450.418
455.102
459.561
463.793
467.795
471.565
475.1
478.397
481.454
484.269
486.839
489.162
491.236
493.057
494.623
)
;
    }
}


// ************************************************************************* //
