/*--------------------------------*- C++ -*----------------------------------*\
  =========                 |
  \\      /  F ield         | OpenFOAM: The Open Source CFD Toolbox
   \\    /   O peration     | Website:  https://openfoam.org
    \\  /    A nd           | Version:  9
     \\/     M anipulation  |
\*---------------------------------------------------------------------------*/
FoamFile
{
    format      ascii;
    class       volScalarField;
    location    "18000";
    object      T;
}
// * * * * * * * * * * * * * * * * * * * * * * * * * * * * * * * * * * * * * //

dimensions      [0 0 0 1 0 0 0];

internalField   nonuniform List<scalar> 
100
(
290.733
289.762
288.819
287.904
287.018
286.16
285.331
284.53
283.758
283.014
282.298
281.61
280.95
280.319
279.715
279.14
278.592
278.072
277.58
277.115
276.678
276.269
275.887
275.531
275.204
274.903
274.628
274.381
274.16
273.966
273.798
273.656
273.54
273.449
273.385
273.346
273.332
273.343
273.38
273.441
273.526
273.636
273.77
273.928
274.109
274.314
274.542
274.793
275.067
275.364
275.682
276.023
276.385
276.769
277.174
277.6
278.046
278.513
278.999
279.506
280.032
280.577
281.14
281.723
282.323
282.941
283.577
284.229
284.899
285.585
286.287
287.004
287.737
288.485
289.248
290.024
290.815
291.619
292.435
293.265
294.106
294.96
295.824
296.7
297.586
298.482
299.387
300.302
301.226
302.157
303.097
304.044
304.997
305.957
306.923
307.894
308.87
309.851
310.835
311.823
)
;

boundaryField
{
    left
    {
        type            fixedGradient;
        gradient        uniform 500;
    }
    right
    {
        type            uniformFixedValue;
        uniformValue    
        {
            type            sine;
            amplitude       
            {
                type            constant;
                value           20;
            }
            frequency       1.1574e-05;
            start           0;
            level           
            {
                type            constant;
                value           293;
            }
        }
        value           uniform 312.318;
    }
    frontAndBack
    {
        type            empty;
    }
    top_bottom
    {
        type            zeroGradient;
    }
}


// ************************************************************************* //
