/*--------------------------------*- C++ -*----------------------------------*\
  =========                 |
  \\      /  F ield         | OpenFOAM: The Open Source CFD Toolbox
   \\    /   O peration     | Website:  https://openfoam.org
    \\  /    A nd           | Version:  9
     \\/     M anipulation  |
\*---------------------------------------------------------------------------*/
FoamFile
{
    format      ascii;
    class       volScalarField;
    location    "18000";
    object      T_0;
}
// * * * * * * * * * * * * * * * * * * * * * * * * * * * * * * * * * * * * * //

dimensions      [0 0 0 1 0 0 0];

internalField   nonuniform List<scalar> 
100
(
289.241
288.27
287.327
286.413
285.528
284.672
283.844
283.045
282.275
281.533
280.819
280.135
279.478
278.85
278.25
277.678
277.135
276.62
276.132
275.673
275.241
274.837
274.46
274.111
273.79
273.495
273.228
272.988
272.774
272.588
272.428
272.294
272.186
272.105
272.049
272.02
272.015
272.037
272.083
272.154
272.251
272.371
272.517
272.686
272.879
273.096
273.337
273.601
273.887
274.197
274.529
274.883
275.26
275.658
276.077
276.518
276.98
277.462
277.964
278.487
279.029
279.59
280.171
280.77
281.388
282.024
282.677
283.348
284.036
284.741
285.462
286.199
286.951
287.719
288.502
289.299
290.11
290.935
291.773
292.624
293.487
294.362
295.249
296.147
297.056
297.975
298.904
299.843
300.79
301.746
302.71
303.681
304.66
305.645
306.636
307.633
308.635
309.642
310.653
311.668
)
;

boundaryField
{
    left
    {
        type            fixedGradient;
        gradient        uniform 500;
    }
    right
    {
        type            uniformFixedValue;
        uniformValue    
        {
            type            sine;
            amplitude       
            {
                type            constant;
                value           20;
            }
            frequency       1.1574e-05;
            start           0;
            level           
            {
                type            constant;
                value           293;
            }
        }
        value           uniform 312.176;
    }
    frontAndBack
    {
        type            empty;
    }
    top_bottom
    {
        type            zeroGradient;
    }
}


// ************************************************************************* //
