/*--------------------------------*- C++ -*----------------------------------*\
  =========                 |
  \\      /  F ield         | OpenFOAM: The Open Source CFD Toolbox
   \\    /   O peration     | Website:  https://openfoam.org
    \\  /    A nd           | Version:  9
     \\/     M anipulation  |
\*---------------------------------------------------------------------------*/
FoamFile
{
    format      ascii;
    class       volScalarField;
    location    "151200";
    object      ddt0(T);
}
// * * * * * * * * * * * * * * * * * * * * * * * * * * * * * * * * * * * * * //

dimensions      [0 0 -1 1 0 0 0];

internalField   nonuniform List<scalar> 
100
(
-0.000590615
-0.000590636
-0.000590677
-0.00059074
-0.000590822
-0.000590924
-0.000591044
-0.000591182
-0.000591336
-0.000591506
-0.000591689
-0.000591885
-0.000592091
-0.000592306
-0.000592528
-0.000592754
-0.000592981
-0.000593209
-0.000593432
-0.00059365
-0.000593859
-0.000594056
-0.000594236
-0.000594398
-0.000594537
-0.00059465
-0.000594732
-0.000594779
-0.000594788
-0.000594753
-0.00059467
-0.000594535
-0.000594342
-0.000594086
-0.000593763
-0.000593366
-0.00059289
-0.00059233
-0.000591679
-0.000590933
-0.000590083
-0.000589125
-0.000588051
-0.000586856
-0.000585531
-0.000584071
-0.000582468
-0.000580714
-0.000578804
-0.000576728
-0.000574479
-0.000572049
-0.000569431
-0.000566616
-0.000563595
-0.000560361
-0.000556905
-0.000553217
-0.000549289
-0.000545113
-0.000540677
-0.000535975
-0.000530995
-0.000525728
-0.000520164
-0.000514294
-0.000508108
-0.000501594
-0.000494744
-0.000487546
-0.00047999
-0.000472065
-0.000463761
-0.000455066
-0.000445969
-0.000436459
-0.000426525
-0.000416156
-0.000405339
-0.000394063
-0.000382317
-0.000370088
-0.000357365
-0.000344135
-0.000330387
-0.000316108
-0.000301285
-0.000285907
-0.000269961
-0.000253434
-0.000236314
-0.000218587
-0.000200242
-0.000181266
-0.000161644
-0.000141366
-0.000120416
-9.87838e-05
-7.64547e-05
-5.34161e-05
)
;

boundaryField
{
    left
    {
        type            calculated;
        value           uniform -0.000590615;
    }
    right
    {
        type            calculated;
        value           uniform -4.15355e-05;
    }
    frontAndBack
    {
        type            empty;
    }
    top_bottom
    {
        type            calculated;
        value           nonuniform List<scalar> 
200
(
-0.000590615
-0.000590636
-0.000590677
-0.00059074
-0.000590822
-0.000590924
-0.000591044
-0.000591182
-0.000591336
-0.000591506
-0.000591689
-0.000591885
-0.000592091
-0.000592306
-0.000592528
-0.000592754
-0.000592981
-0.000593209
-0.000593432
-0.00059365
-0.000593859
-0.000594056
-0.000594236
-0.000594398
-0.000594537
-0.00059465
-0.000594732
-0.000594779
-0.000594788
-0.000594753
-0.00059467
-0.000594535
-0.000594342
-0.000594086
-0.000593763
-0.000593366
-0.00059289
-0.00059233
-0.000591679
-0.000590933
-0.000590083
-0.000589125
-0.000588051
-0.000586856
-0.000585531
-0.000584071
-0.000582468
-0.000580714
-0.000578804
-0.000576728
-0.000574479
-0.000572049
-0.000569431
-0.000566616
-0.000563595
-0.000560361
-0.000556905
-0.000553217
-0.000549289
-0.000545113
-0.000540677
-0.000535975
-0.000530995
-0.000525728
-0.000520164
-0.000514294
-0.000508108
-0.000501594
-0.000494744
-0.000487546
-0.00047999
-0.000472065
-0.000463761
-0.000455066
-0.000445969
-0.000436459
-0.000426525
-0.000416156
-0.000405339
-0.000394063
-0.000382317
-0.000370088
-0.000357365
-0.000344135
-0.000330387
-0.000316108
-0.000301285
-0.000285907
-0.000269961
-0.000253434
-0.000236314
-0.000218587
-0.000200242
-0.000181266
-0.000161644
-0.000141366
-0.000120416
-9.87838e-05
-7.64547e-05
-5.34161e-05
-0.000590615
-0.000590636
-0.000590677
-0.00059074
-0.000590822
-0.000590924
-0.000591044
-0.000591182
-0.000591336
-0.000591506
-0.000591689
-0.000591885
-0.000592091
-0.000592306
-0.000592528
-0.000592754
-0.000592981
-0.000593209
-0.000593432
-0.00059365
-0.000593859
-0.000594056
-0.000594236
-0.000594398
-0.000594537
-0.00059465
-0.000594732
-0.000594779
-0.000594788
-0.000594753
-0.00059467
-0.000594535
-0.000594342
-0.000594086
-0.000593763
-0.000593366
-0.00059289
-0.00059233
-0.000591679
-0.000590933
-0.000590083
-0.000589125
-0.000588051
-0.000586856
-0.000585531
-0.000584071
-0.000582468
-0.000580714
-0.000578804
-0.000576728
-0.000574479
-0.000572049
-0.000569431
-0.000566616
-0.000563595
-0.000560361
-0.000556905
-0.000553217
-0.000549289
-0.000545113
-0.000540677
-0.000535975
-0.000530995
-0.000525728
-0.000520164
-0.000514294
-0.000508108
-0.000501594
-0.000494744
-0.000487546
-0.00047999
-0.000472065
-0.000463761
-0.000455066
-0.000445969
-0.000436459
-0.000426525
-0.000416156
-0.000405339
-0.000394063
-0.000382317
-0.000370088
-0.000357365
-0.000344135
-0.000330387
-0.000316108
-0.000301285
-0.000285907
-0.000269961
-0.000253434
-0.000236314
-0.000218587
-0.000200242
-0.000181266
-0.000161644
-0.000141366
-0.000120416
-9.87838e-05
-7.64547e-05
-5.34161e-05
)
;
    }
}


// ************************************************************************* //
