/*--------------------------------*- C++ -*----------------------------------*\
  =========                 |
  \\      /  F ield         | OpenFOAM: The Open Source CFD Toolbox
   \\    /   O peration     | Website:  https://openfoam.org
    \\  /    A nd           | Version:  9
     \\/     M anipulation  |
\*---------------------------------------------------------------------------*/
FoamFile
{
    format      ascii;
    class       volScalarField;
    location    "151200";
    object      gradTx;
}
// * * * * * * * * * * * * * * * * * * * * * * * * * * * * * * * * * * * * * //

dimensions      [0 -1 0 1 0 0 0];

internalField   nonuniform List<scalar> 
100
(
-501.02
-503.059
-505.099
-507.139
-509.178
-511.218
-513.259
-515.299
-517.34
-519.381
-521.423
-523.464
-525.507
-527.549
-529.592
-531.635
-533.679
-535.723
-537.767
-539.812
-541.856
-543.901
-545.946
-547.99
-550.035
-552.079
-554.123
-556.167
-558.209
-560.251
-562.292
-564.332
-566.37
-568.406
-570.441
-572.473
-574.502
-576.529
-578.553
-580.573
-582.59
-584.602
-586.609
-588.611
-590.608
-592.599
-594.583
-596.56
-598.529
-600.49
-602.442
-604.385
-606.317
-608.239
-610.149
-612.047
-613.932
-615.803
-617.659
-619.499
-621.323
-623.129
-624.918
-626.686
-628.434
-630.161
-631.865
-633.546
-635.201
-636.831
-638.433
-640.006
-641.55
-643.062
-644.541
-645.987
-647.397
-648.77
-650.104
-651.398
-652.65
-653.859
-655.023
-656.139
-657.207
-658.225
-659.19
-660.101
-660.956
-661.752
-662.488
-663.162
-663.771
-664.314
-664.788
-665.19
-665.52
-665.773
-665.949
-666.044
)
;

boundaryField
{
    left
    {
        type            calculated;
        value           uniform -500;
    }
    right
    {
        type            calculated;
        value           uniform -666.071;
    }
    frontAndBack
    {
        type            empty;
    }
    top_bottom
    {
        type            calculated;
        value           nonuniform List<scalar> 
200
(
-501.02
-503.059
-505.099
-507.139
-509.178
-511.218
-513.259
-515.299
-517.34
-519.381
-521.423
-523.464
-525.507
-527.549
-529.592
-531.635
-533.679
-535.723
-537.767
-539.812
-541.856
-543.901
-545.946
-547.99
-550.035
-552.079
-554.123
-556.167
-558.209
-560.251
-562.292
-564.332
-566.37
-568.406
-570.441
-572.473
-574.502
-576.529
-578.553
-580.573
-582.59
-584.602
-586.609
-588.611
-590.608
-592.599
-594.583
-596.56
-598.529
-600.49
-602.442
-604.385
-606.317
-608.239
-610.149
-612.047
-613.932
-615.803
-617.659
-619.499
-621.323
-623.129
-624.918
-626.686
-628.434
-630.161
-631.865
-633.546
-635.201
-636.831
-638.433
-640.006
-641.55
-643.062
-644.541
-645.987
-647.397
-648.77
-650.104
-651.398
-652.65
-653.859
-655.023
-656.139
-657.207
-658.225
-659.19
-660.101
-660.956
-661.752
-662.488
-663.162
-663.771
-664.314
-664.788
-665.19
-665.52
-665.773
-665.949
-666.044
-501.02
-503.059
-505.099
-507.139
-509.178
-511.218
-513.259
-515.299
-517.34
-519.381
-521.423
-523.464
-525.507
-527.549
-529.592
-531.635
-533.679
-535.723
-537.767
-539.812
-541.856
-543.901
-545.946
-547.99
-550.035
-552.079
-554.123
-556.167
-558.209
-560.251
-562.292
-564.332
-566.37
-568.406
-570.441
-572.473
-574.502
-576.529
-578.553
-580.573
-582.59
-584.602
-586.609
-588.611
-590.608
-592.599
-594.583
-596.56
-598.529
-600.49
-602.442
-604.385
-606.317
-608.239
-610.149
-612.047
-613.932
-615.803
-617.659
-619.499
-621.323
-623.129
-624.918
-626.686
-628.434
-630.161
-631.865
-633.546
-635.201
-636.831
-638.433
-640.006
-641.55
-643.062
-644.541
-645.987
-647.397
-648.77
-650.104
-651.398
-652.65
-653.859
-655.023
-656.139
-657.207
-658.225
-659.19
-660.101
-660.956
-661.752
-662.488
-663.162
-663.771
-664.314
-664.788
-665.19
-665.52
-665.773
-665.949
-666.044
)
;
    }
}


// ************************************************************************* //
