/*--------------------------------*- C++ -*----------------------------------*\
  =========                 |
  \\      /  F ield         | OpenFOAM: The Open Source CFD Toolbox
   \\    /   O peration     | Website:  https://openfoam.org
    \\  /    A nd           | Version:  9
     \\/     M anipulation  |
\*---------------------------------------------------------------------------*/
FoamFile
{
    format      ascii;
    class       volScalarField;
    location    "151200";
    object      T;
}
// * * * * * * * * * * * * * * * * * * * * * * * * * * * * * * * * * * * * * //

dimensions      [0 0 0 1 0 0 0];

internalField   nonuniform List<scalar> 
100
(
391.75
390.746
389.737
388.725
387.709
386.689
385.664
384.636
383.603
382.566
381.525
380.48
379.431
378.378
377.321
376.26
375.195
374.125
373.052
371.974
370.893
369.807
368.717
367.623
366.525
365.423
364.317
363.206
362.092
360.974
359.851
358.724
357.594
356.459
355.32
354.177
353.03
351.879
350.724
349.565
348.402
347.235
346.063
344.888
343.709
342.526
341.339
340.147
338.952
337.753
336.55
335.344
334.133
332.918
331.7
330.478
329.252
328.022
326.788
325.551
324.31
323.066
321.818
320.566
319.311
318.053
316.791
315.525
314.256
312.984
311.709
310.431
309.149
307.864
306.577
305.286
303.993
302.697
301.398
300.096
298.792
297.486
296.177
294.866
293.552
292.237
290.919
289.6
288.279
286.956
285.632
284.306
282.979
281.651
280.322
278.992
277.661
276.33
274.998
273.666
)
;

boundaryField
{
    left
    {
        type            fixedGradient;
        gradient        uniform 500;
    }
    right
    {
        type            uniformFixedValue;
        uniformValue    
        {
            type            sine;
            amplitude       
            {
                type            constant;
                value           20;
            }
            frequency       1.1574e-05;
            start           0;
            level           
            {
                type            constant;
                value           293;
            }
        }
        value           uniform 273;
    }
    frontAndBack
    {
        type            empty;
    }
    top_bottom
    {
        type            zeroGradient;
    }
}


// ************************************************************************* //
