/*--------------------------------*- C++ -*----------------------------------*\
  =========                 |
  \\      /  F ield         | OpenFOAM: The Open Source CFD Toolbox
   \\    /   O peration     | Website:  https://openfoam.org
    \\  /    A nd           | Version:  9
     \\/     M anipulation  |
\*---------------------------------------------------------------------------*/
FoamFile
{
    format      ascii;
    class       volScalarField;
    location    "151200";
    object      T_0;
}
// * * * * * * * * * * * * * * * * * * * * * * * * * * * * * * * * * * * * * //

dimensions      [0 0 0 1 0 0 0];

internalField   nonuniform List<scalar> 
100
(
391.963
390.958
389.95
388.938
387.922
386.901
385.877
384.848
383.816
382.779
381.738
380.694
379.645
378.592
377.535
376.473
375.408
374.339
373.265
372.188
371.106
370.02
368.931
367.837
366.739
365.637
364.53
363.42
362.306
361.187
360.065
358.938
357.807
356.672
355.533
354.39
353.243
352.091
350.936
349.777
348.613
347.445
346.274
345.098
343.918
342.734
341.547
340.355
339.159
337.959
336.755
335.547
334.336
333.12
331.9
330.677
329.45
328.218
326.983
325.745
324.502
323.256
322.006
320.752
319.495
318.234
316.97
315.702
314.431
313.156
311.878
310.596
309.312
308.024
306.733
305.439
304.142
302.841
301.539
300.233
298.924
297.613
296.3
294.984
293.665
292.344
291.022
289.697
288.37
287.041
285.71
284.378
283.044
281.709
280.373
279.035
277.697
276.358
275.018
273.677
)
;

boundaryField
{
    left
    {
        type            fixedGradient;
        gradient        uniform 500;
    }
    right
    {
        type            uniformFixedValue;
        uniformValue    
        {
            type            sine;
            amplitude       
            {
                type            constant;
                value           20;
            }
            frequency       1.1574e-05;
            start           0;
            level           
            {
                type            constant;
                value           293;
            }
        }
        value           uniform 273.007;
    }
    frontAndBack
    {
        type            empty;
    }
    top_bottom
    {
        type            zeroGradient;
    }
}


// ************************************************************************* //
