/*--------------------------------*- C++ -*----------------------------------*\
  =========                 |
  \\      /  F ield         | OpenFOAM: The Open Source CFD Toolbox
   \\    /   O peration     | Website:  https://openfoam.org
    \\  /    A nd           | Version:  9
     \\/     M anipulation  |
\*---------------------------------------------------------------------------*/
FoamFile
{
    format      ascii;
    class       volScalarField;
    location    "100800";
    object      ddt0(T);
}
// * * * * * * * * * * * * * * * * * * * * * * * * * * * * * * * * * * * * * //

dimensions      [0 0 -1 1 0 0 0];

internalField   nonuniform List<scalar> 
100
(
0.000712806
0.000712928
0.00071317
0.000713533
0.000714017
0.00071462
0.000715344
0.000716185
0.000717145
0.000718221
0.000719414
0.000720721
0.000722141
0.000723673
0.000725315
0.000727065
0.000728922
0.000730884
0.000732949
0.000735114
0.000737377
0.000739735
0.000742187
0.000744729
0.000747358
0.000750072
0.000752867
0.00075574
0.000758687
0.000761706
0.000764792
0.000767942
0.000771152
0.000774417
0.000777733
0.000781096
0.000784502
0.000787946
0.000791422
0.000794926
0.000798454
0.000801999
0.000805556
0.000809119
0.000812684
0.000816243
0.000819792
0.000823323
0.00082683
0.000830307
0.000833747
0.000837144
0.000840489
0.000843777
0.000846999
0.000850147
0.000853216
0.000856195
0.000859078
0.000861855
0.00086452
0.000867062
0.000869473
0.000871744
0.000873866
0.00087583
0.000877626
0.000879243
0.000880673
0.000881906
0.00088293
0.000883735
0.000884311
0.000884646
0.00088473
0.000884551
0.000884097
0.000883358
0.000882321
0.000880973
0.000879303
0.000877298
0.000874946
0.000872232
0.000869145
0.000865671
0.000861796
0.000857506
0.000852788
0.000847627
0.00084201
0.000835921
0.000829345
0.000822268
0.000814674
0.000806549
0.000797876
0.000788639
0.000778824
0.000768412
)
;

boundaryField
{
    left
    {
        type            calculated;
        value           uniform 0.000712806;
    }
    right
    {
        type            calculated;
        value           uniform 0.000762901;
    }
    frontAndBack
    {
        type            empty;
    }
    top_bottom
    {
        type            calculated;
        value           nonuniform List<scalar> 
200
(
0.000712806
0.000712928
0.00071317
0.000713533
0.000714017
0.00071462
0.000715344
0.000716185
0.000717145
0.000718221
0.000719414
0.000720721
0.000722141
0.000723673
0.000725315
0.000727065
0.000728922
0.000730884
0.000732949
0.000735114
0.000737377
0.000739735
0.000742187
0.000744729
0.000747358
0.000750072
0.000752867
0.00075574
0.000758687
0.000761706
0.000764792
0.000767942
0.000771152
0.000774417
0.000777733
0.000781096
0.000784502
0.000787946
0.000791422
0.000794926
0.000798454
0.000801999
0.000805556
0.000809119
0.000812684
0.000816243
0.000819792
0.000823323
0.00082683
0.000830307
0.000833747
0.000837144
0.000840489
0.000843777
0.000846999
0.000850147
0.000853216
0.000856195
0.000859078
0.000861855
0.00086452
0.000867062
0.000869473
0.000871744
0.000873866
0.00087583
0.000877626
0.000879243
0.000880673
0.000881906
0.00088293
0.000883735
0.000884311
0.000884646
0.00088473
0.000884551
0.000884097
0.000883358
0.000882321
0.000880973
0.000879303
0.000877298
0.000874946
0.000872232
0.000869145
0.000865671
0.000861796
0.000857506
0.000852788
0.000847627
0.00084201
0.000835921
0.000829345
0.000822268
0.000814674
0.000806549
0.000797876
0.000788639
0.000778824
0.000768412
0.000712806
0.000712928
0.00071317
0.000713533
0.000714017
0.00071462
0.000715344
0.000716185
0.000717145
0.000718221
0.000719414
0.000720721
0.000722141
0.000723673
0.000725315
0.000727065
0.000728922
0.000730884
0.000732949
0.000735114
0.000737377
0.000739735
0.000742187
0.000744729
0.000747358
0.000750072
0.000752867
0.00075574
0.000758687
0.000761706
0.000764792
0.000767942
0.000771152
0.000774417
0.000777733
0.000781096
0.000784502
0.000787946
0.000791422
0.000794926
0.000798454
0.000801999
0.000805556
0.000809119
0.000812684
0.000816243
0.000819792
0.000823323
0.00082683
0.000830307
0.000833747
0.000837144
0.000840489
0.000843777
0.000846999
0.000850147
0.000853216
0.000856195
0.000859078
0.000861855
0.00086452
0.000867062
0.000869473
0.000871744
0.000873866
0.00087583
0.000877626
0.000879243
0.000880673
0.000881906
0.00088293
0.000883735
0.000884311
0.000884646
0.00088473
0.000884551
0.000884097
0.000883358
0.000882321
0.000880973
0.000879303
0.000877298
0.000874946
0.000872232
0.000869145
0.000865671
0.000861796
0.000857506
0.000852788
0.000847627
0.00084201
0.000835921
0.000829345
0.000822268
0.000814674
0.000806549
0.000797876
0.000788639
0.000778824
0.000768412
)
;
    }
}


// ************************************************************************* //
