/*--------------------------------*- C++ -*----------------------------------*\
  =========                 |
  \\      /  F ield         | OpenFOAM: The Open Source CFD Toolbox
   \\    /   O peration     | Website:  https://openfoam.org
    \\  /    A nd           | Version:  9
     \\/     M anipulation  |
\*---------------------------------------------------------------------------*/
FoamFile
{
    format      ascii;
    class       volScalarField;
    location    "100800";
    object      gradTx;
}
// * * * * * * * * * * * * * * * * * * * * * * * * * * * * * * * * * * * * * //

dimensions      [0 -1 0 1 0 0 0];

internalField   nonuniform List<scalar> 
100
(
-498.76
-496.281
-493.801
-491.32
-488.838
-486.354
-483.868
-481.379
-478.887
-476.392
-473.894
-471.391
-468.884
-466.372
-463.854
-461.332
-458.803
-456.268
-453.727
-451.178
-448.623
-446.06
-443.489
-440.91
-438.323
-435.727
-433.122
-430.508
-427.885
-425.252
-422.609
-419.956
-417.292
-414.619
-411.935
-409.24
-406.534
-403.817
-401.09
-398.351
-395.601
-392.84
-390.067
-387.284
-384.489
-381.682
-378.865
-376.037
-373.197
-370.347
-367.486
-364.615
-361.733
-358.841
-355.94
-353.028
-350.108
-347.178
-344.24
-341.294
-338.339
-335.378
-332.409
-329.434
-326.453
-323.467
-320.476
-317.481
-314.482
-311.481
-308.477
-305.473
-302.468
-299.463
-296.46
-293.459
-290.461
-287.467
-284.479
-281.497
-278.522
-275.556
-272.6
-269.655
-266.722
-263.803
-260.899
-258.012
-255.142
-252.293
-249.464
-246.659
-243.877
-241.123
-238.396
-235.699
-233.034
-230.402
-227.806
-225.248
)
;

boundaryField
{
    left
    {
        type            calculated;
        value           uniform -500;
    }
    right
    {
        type            calculated;
        value           uniform -223.979;
    }
    frontAndBack
    {
        type            empty;
    }
    top_bottom
    {
        type            calculated;
        value           nonuniform List<scalar> 
200
(
-498.76
-496.281
-493.801
-491.32
-488.838
-486.354
-483.868
-481.379
-478.887
-476.392
-473.894
-471.391
-468.884
-466.372
-463.854
-461.332
-458.803
-456.268
-453.727
-451.178
-448.623
-446.06
-443.489
-440.91
-438.323
-435.727
-433.122
-430.508
-427.885
-425.252
-422.609
-419.956
-417.292
-414.619
-411.935
-409.24
-406.534
-403.817
-401.09
-398.351
-395.601
-392.84
-390.067
-387.284
-384.489
-381.682
-378.865
-376.037
-373.197
-370.347
-367.486
-364.615
-361.733
-358.841
-355.94
-353.028
-350.108
-347.178
-344.24
-341.294
-338.339
-335.378
-332.409
-329.434
-326.453
-323.467
-320.476
-317.481
-314.482
-311.481
-308.477
-305.473
-302.468
-299.463
-296.46
-293.459
-290.461
-287.467
-284.479
-281.497
-278.522
-275.556
-272.6
-269.655
-266.722
-263.803
-260.899
-258.012
-255.142
-252.293
-249.464
-246.659
-243.877
-241.123
-238.396
-235.699
-233.034
-230.402
-227.806
-225.248
-498.76
-496.281
-493.801
-491.32
-488.838
-486.354
-483.868
-481.379
-478.887
-476.392
-473.894
-471.391
-468.884
-466.372
-463.854
-461.332
-458.803
-456.268
-453.727
-451.178
-448.623
-446.06
-443.489
-440.91
-438.323
-435.727
-433.122
-430.508
-427.885
-425.252
-422.609
-419.956
-417.292
-414.619
-411.935
-409.24
-406.534
-403.817
-401.09
-398.351
-395.601
-392.84
-390.067
-387.284
-384.489
-381.682
-378.865
-376.037
-373.197
-370.347
-367.486
-364.615
-361.733
-358.841
-355.94
-353.028
-350.108
-347.178
-344.24
-341.294
-338.339
-335.378
-332.409
-329.434
-326.453
-323.467
-320.476
-317.481
-314.482
-311.481
-308.477
-305.473
-302.468
-299.463
-296.46
-293.459
-290.461
-287.467
-284.479
-281.497
-278.522
-275.556
-272.6
-269.655
-266.722
-263.803
-260.899
-258.012
-255.142
-252.293
-249.464
-246.659
-243.877
-241.123
-238.396
-235.699
-233.034
-230.402
-227.806
-225.248
)
;
    }
}


// ************************************************************************* //
