/*--------------------------------*- C++ -*----------------------------------*\
  =========                 |
  \\      /  F ield         | OpenFOAM: The Open Source CFD Toolbox
   \\    /   O peration     | Website:  https://openfoam.org
    \\  /    A nd           | Version:  9
     \\/     M anipulation  |
\*---------------------------------------------------------------------------*/
FoamFile
{
    format      ascii;
    class       volScalarField;
    location    "100800";
    object      T;
}
// * * * * * * * * * * * * * * * * * * * * * * * * * * * * * * * * * * * * * //

dimensions      [0 0 0 1 0 0 0];

internalField   nonuniform List<scalar> 
100
(
382.972
381.977
380.987
380.001
379.021
378.046
377.076
376.111
375.15
374.195
373.245
372.299
371.359
370.424
369.494
368.569
367.648
366.733
365.823
364.918
364.019
363.124
362.234
361.35
360.471
359.597
358.728
357.864
357.006
356.153
355.305
354.462
353.625
352.793
351.966
351.145
350.33
349.519
348.714
347.915
347.121
346.332
345.549
344.772
344
343.234
342.474
341.719
340.969
340.226
339.488
338.756
338.03
337.309
336.594
335.885
335.182
334.485
333.793
333.108
332.428
331.755
331.087
330.425
329.769
329.119
328.475
327.837
327.205
326.579
325.959
325.345
324.737
324.135
323.54
322.95
322.366
321.788
321.216
320.65
320.09
319.536
318.988
318.445
317.909
317.378
316.854
316.335
315.822
315.314
314.813
314.316
313.826
313.341
312.861
312.387
311.919
311.455
310.997
310.544
)
;

boundaryField
{
    left
    {
        type            fixedGradient;
        gradient        uniform 500;
    }
    right
    {
        type            uniformFixedValue;
        uniformValue    
        {
            type            sine;
            amplitude       
            {
                type            constant;
                value           20;
            }
            frequency       1.1574e-05;
            start           0;
            level           
            {
                type            constant;
                value           293;
            }
        }
        value           uniform 310.32;
    }
    frontAndBack
    {
        type            empty;
    }
    top_bottom
    {
        type            zeroGradient;
    }
}


// ************************************************************************* //
