/*--------------------------------*- C++ -*----------------------------------*\
  =========                 |
  \\      /  F ield         | OpenFOAM: The Open Source CFD Toolbox
   \\    /   O peration     | Website:  https://openfoam.org
    \\  /    A nd           | Version:  9
     \\/     M anipulation  |
\*---------------------------------------------------------------------------*/
FoamFile
{
    format      ascii;
    class       volScalarField;
    location    "100800";
    object      T_0;
}
// * * * * * * * * * * * * * * * * * * * * * * * * * * * * * * * * * * * * * //

dimensions      [0 0 0 1 0 0 0];

internalField   nonuniform List<scalar> 
100
(
382.714
381.719
380.729
379.743
378.763
377.788
376.817
375.852
374.891
373.935
372.985
372.039
371.098
370.162
369.231
368.306
367.385
366.469
365.558
364.653
363.752
362.857
361.966
361.081
360.201
359.326
358.456
357.591
356.732
355.878
355.029
354.185
353.347
352.514
351.686
350.864
350.047
349.235
348.429
347.628
346.833
346.044
345.259
344.481
343.708
342.94
342.179
341.423
340.672
339.927
339.188
338.455
337.728
337.006
336.29
335.58
334.876
334.178
333.485
332.799
332.118
331.444
330.775
330.113
329.456
328.806
328.161
327.523
326.89
326.264
325.644
325.03
324.422
323.82
323.224
322.634
322.051
321.473
320.902
320.336
319.777
319.224
318.677
318.136
317.6
317.071
316.548
316.031
315.52
315.014
314.515
314.021
313.533
313.051
312.574
312.103
311.638
311.178
310.723
310.274
)
;

boundaryField
{
    left
    {
        type            fixedGradient;
        gradient        uniform 500;
    }
    right
    {
        type            uniformFixedValue;
        uniformValue    
        {
            type            sine;
            amplitude       
            {
                type            constant;
                value           20;
            }
            frequency       1.1574e-05;
            start           0;
            level           
            {
                type            constant;
                value           293;
            }
        }
        value           uniform 310.052;
    }
    frontAndBack
    {
        type            empty;
    }
    top_bottom
    {
        type            zeroGradient;
    }
}


// ************************************************************************* //
