/*--------------------------------*- C++ -*----------------------------------*\
  =========                 |
  \\      /  F ield         | OpenFOAM: The Open Source CFD Toolbox
   \\    /   O peration     | Website:  https://openfoam.org
    \\  /    A nd           | Version:  9
     \\/     M anipulation  |
\*---------------------------------------------------------------------------*/
FoamFile
{
    format      ascii;
    class       volScalarField;
    location    "50400";
    object      ddt0(T);
}
// * * * * * * * * * * * * * * * * * * * * * * * * * * * * * * * * * * * * * //

dimensions      [0 0 -1 1 0 0 0];

internalField   nonuniform List<scalar> 
100
(
0.000844347
0.000843791
0.000842679
0.000841011
0.000838787
0.000836009
0.000832677
0.000828791
0.000824353
0.000819364
0.000813825
0.000807737
0.000801103
0.000793924
0.000786201
0.000777937
0.000769133
0.000759793
0.000749918
0.000739512
0.000728576
0.000717115
0.000705129
0.000692624
0.000679603
0.000666068
0.000652024
0.000637474
0.000622422
0.000606873
0.000590831
0.0005743
0.000557285
0.00053979
0.000521821
0.000503383
0.000484481
0.000465121
0.000445307
0.000425047
0.000404346
0.00038321
0.000361646
0.000339659
0.000317258
0.000294449
0.000271238
0.000247634
0.000223644
0.000199275
0.000174536
0.000149434
0.000123978
9.81768e-05
7.20384e-05
4.55721e-05
1.8787e-05
-8.30755e-06
-3.57019e-05
-6.33862e-05
-9.13506e-05
-0.000119585
-0.000148078
-0.00017682
-0.000205799
-0.000235005
-0.000264425
-0.000294049
-0.000323864
-0.000353858
-0.000384019
-0.000414335
-0.000444791
-0.000475375
-0.000506074
-0.000536874
-0.000567761
-0.00059872
-0.000629737
-0.000660798
-0.000691888
-0.00072299
-0.000754089
-0.00078517
-0.000816217
-0.000847212
-0.000878139
-0.000908981
-0.000939721
-0.000970341
-0.00100082
-0.00103115
-0.0010613
-0.00109126
-0.001121
-0.00115051
-0.00117978
-0.00120876
-0.00123746
-0.00126584
)
;

boundaryField
{
    left
    {
        type            calculated;
        value           uniform 0.000844347;
    }
    right
    {
        type            calculated;
        value           uniform -0.00127987;
    }
    frontAndBack
    {
        type            empty;
    }
    top_bottom
    {
        type            calculated;
        value           nonuniform List<scalar> 
200
(
0.000844347
0.000843791
0.000842679
0.000841011
0.000838787
0.000836009
0.000832677
0.000828791
0.000824353
0.000819364
0.000813825
0.000807737
0.000801103
0.000793924
0.000786201
0.000777937
0.000769133
0.000759793
0.000749918
0.000739512
0.000728576
0.000717115
0.000705129
0.000692624
0.000679603
0.000666068
0.000652024
0.000637474
0.000622422
0.000606873
0.000590831
0.0005743
0.000557285
0.00053979
0.000521821
0.000503383
0.000484481
0.000465121
0.000445307
0.000425047
0.000404346
0.00038321
0.000361646
0.000339659
0.000317258
0.000294449
0.000271238
0.000247634
0.000223644
0.000199275
0.000174536
0.000149434
0.000123978
9.81768e-05
7.20384e-05
4.55721e-05
1.8787e-05
-8.30755e-06
-3.57019e-05
-6.33862e-05
-9.13506e-05
-0.000119585
-0.000148078
-0.00017682
-0.000205799
-0.000235005
-0.000264425
-0.000294049
-0.000323864
-0.000353858
-0.000384019
-0.000414335
-0.000444791
-0.000475375
-0.000506074
-0.000536874
-0.000567761
-0.00059872
-0.000629737
-0.000660798
-0.000691888
-0.00072299
-0.000754089
-0.00078517
-0.000816217
-0.000847212
-0.000878139
-0.000908981
-0.000939721
-0.000970341
-0.00100082
-0.00103115
-0.0010613
-0.00109126
-0.001121
-0.00115051
-0.00117978
-0.00120876
-0.00123746
-0.00126584
0.000844347
0.000843791
0.000842679
0.000841011
0.000838787
0.000836009
0.000832677
0.000828791
0.000824353
0.000819364
0.000813825
0.000807737
0.000801103
0.000793924
0.000786201
0.000777937
0.000769133
0.000759793
0.000749918
0.000739512
0.000728576
0.000717115
0.000705129
0.000692624
0.000679603
0.000666068
0.000652024
0.000637474
0.000622422
0.000606873
0.000590831
0.0005743
0.000557285
0.00053979
0.000521821
0.000503383
0.000484481
0.000465121
0.000445307
0.000425047
0.000404346
0.00038321
0.000361646
0.000339659
0.000317258
0.000294449
0.000271238
0.000247634
0.000223644
0.000199275
0.000174536
0.000149434
0.000123978
9.81768e-05
7.20384e-05
4.55721e-05
1.8787e-05
-8.30755e-06
-3.57019e-05
-6.33862e-05
-9.13506e-05
-0.000119585
-0.000148078
-0.00017682
-0.000205799
-0.000235005
-0.000264425
-0.000294049
-0.000323864
-0.000353858
-0.000384019
-0.000414335
-0.000444791
-0.000475375
-0.000506074
-0.000536874
-0.000567761
-0.00059872
-0.000629737
-0.000660798
-0.000691888
-0.00072299
-0.000754089
-0.00078517
-0.000816217
-0.000847212
-0.000878139
-0.000908981
-0.000939721
-0.000970341
-0.00100082
-0.00103115
-0.0010613
-0.00109126
-0.001121
-0.00115051
-0.00117978
-0.00120876
-0.00123746
-0.00126584
)
;
    }
}


// ************************************************************************* //
