/*--------------------------------*- C++ -*----------------------------------*\
  =========                 |
  \\      /  F ield         | OpenFOAM: The Open Source CFD Toolbox
   \\    /   O peration     | Website:  https://openfoam.org
    \\  /    A nd           | Version:  9
     \\/     M anipulation  |
\*---------------------------------------------------------------------------*/
FoamFile
{
    format      ascii;
    class       volScalarField;
    location    "50400";
    object      gradTx;
}
// * * * * * * * * * * * * * * * * * * * * * * * * * * * * * * * * * * * * * //

dimensions      [0 -1 0 1 0 0 0];

internalField   nonuniform List<scalar> 
100
(
-498.594
-495.783
-492.974
-490.171
-487.373
-484.585
-481.807
-479.041
-476.289
-473.553
-470.836
-468.138
-465.461
-462.808
-460.181
-457.58
-455.009
-452.469
-449.961
-447.487
-445.05
-442.651
-440.292
-437.975
-435.701
-433.472
-431.29
-429.156
-427.073
-425.042
-423.064
-421.142
-419.277
-417.47
-415.724
-414.039
-412.418
-410.862
-409.372
-407.95
-406.598
-405.317
-404.108
-402.973
-401.914
-400.931
-400.026
-399.2
-398.456
-397.793
-397.213
-396.718
-396.308
-395.985
-395.751
-395.605
-395.549
-395.585
-395.713
-395.933
-396.248
-396.658
-397.164
-397.767
-398.467
-399.265
-400.163
-401.16
-402.257
-403.455
-404.755
-406.157
-407.661
-409.268
-410.978
-412.791
-414.709
-416.73
-418.856
-421.086
-423.42
-425.859
-428.402
-431.05
-433.802
-436.657
-439.617
-442.679
-445.845
-449.113
-452.484
-455.956
-459.529
-463.202
-466.974
-470.845
-474.814
-478.88
-483.041
-487.297
)
;

boundaryField
{
    left
    {
        type            calculated;
        value           uniform -500;
    }
    right
    {
        type            calculated;
        value           uniform -489.448;
    }
    frontAndBack
    {
        type            empty;
    }
    top_bottom
    {
        type            calculated;
        value           nonuniform List<scalar> 
200
(
-498.594
-495.783
-492.974
-490.171
-487.373
-484.585
-481.807
-479.041
-476.289
-473.553
-470.836
-468.138
-465.461
-462.808
-460.181
-457.58
-455.009
-452.469
-449.961
-447.487
-445.05
-442.651
-440.292
-437.975
-435.701
-433.472
-431.29
-429.156
-427.073
-425.042
-423.064
-421.142
-419.277
-417.47
-415.724
-414.039
-412.418
-410.862
-409.372
-407.95
-406.598
-405.317
-404.108
-402.973
-401.914
-400.931
-400.026
-399.2
-398.456
-397.793
-397.213
-396.718
-396.308
-395.985
-395.751
-395.605
-395.549
-395.585
-395.713
-395.933
-396.248
-396.658
-397.164
-397.767
-398.467
-399.265
-400.163
-401.16
-402.257
-403.455
-404.755
-406.157
-407.661
-409.268
-410.978
-412.791
-414.709
-416.73
-418.856
-421.086
-423.42
-425.859
-428.402
-431.05
-433.802
-436.657
-439.617
-442.679
-445.845
-449.113
-452.484
-455.956
-459.529
-463.202
-466.974
-470.845
-474.814
-478.88
-483.041
-487.297
-498.594
-495.783
-492.974
-490.171
-487.373
-484.585
-481.807
-479.041
-476.289
-473.553
-470.836
-468.138
-465.461
-462.808
-460.181
-457.58
-455.009
-452.469
-449.961
-447.487
-445.05
-442.651
-440.292
-437.975
-435.701
-433.472
-431.29
-429.156
-427.073
-425.042
-423.064
-421.142
-419.277
-417.47
-415.724
-414.039
-412.418
-410.862
-409.372
-407.95
-406.598
-405.317
-404.108
-402.973
-401.914
-400.931
-400.026
-399.2
-398.456
-397.793
-397.213
-396.718
-396.308
-395.985
-395.751
-395.605
-395.549
-395.585
-395.713
-395.933
-396.248
-396.658
-397.164
-397.767
-398.467
-399.265
-400.163
-401.16
-402.257
-403.455
-404.755
-406.157
-407.661
-409.268
-410.978
-412.791
-414.709
-416.73
-418.856
-421.086
-423.42
-425.859
-428.402
-431.05
-433.802
-436.657
-439.617
-442.679
-445.845
-449.113
-452.484
-455.956
-459.529
-463.202
-466.974
-470.845
-474.814
-478.88
-483.041
-487.297
)
;
    }
}


// ************************************************************************* //
