/*--------------------------------*- C++ -*----------------------------------*\
  =========                 |
  \\      /  F ield         | OpenFOAM: The Open Source CFD Toolbox
   \\    /   O peration     | Website:  https://openfoam.org
    \\  /    A nd           | Version:  9
     \\/     M anipulation  |
\*---------------------------------------------------------------------------*/
FoamFile
{
    format      ascii;
    class       volScalarField;
    location    "50400";
    object      T;
}
// * * * * * * * * * * * * * * * * * * * * * * * * * * * * * * * * * * * * * //

dimensions      [0 0 0 1 0 0 0];

internalField   nonuniform List<scalar> 
100
(
368.684
367.69
366.701
365.718
364.74
363.768
362.802
361.841
360.886
359.936
358.992
358.053
357.119
356.191
355.268
354.35
353.437
352.53
351.628
350.73
349.838
348.95
348.067
347.189
346.315
345.446
344.581
343.721
342.865
342.013
341.164
340.32
339.48
338.643
337.81
336.98
336.154
335.331
334.51
333.693
332.879
332.067
331.257
330.45
329.645
328.843
328.042
327.243
326.445
325.649
324.854
324.06
323.267
322.475
321.683
320.892
320.101
319.309
318.518
317.727
316.934
316.142
315.348
314.553
313.757
312.959
312.16
311.358
310.555
309.749
308.941
308.13
307.317
306.5
305.68
304.856
304.028
303.197
302.361
301.522
300.677
299.828
298.974
298.114
297.249
296.379
295.503
294.621
293.732
292.837
291.936
291.027
290.112
289.189
288.259
287.321
286.376
285.422
284.46
283.49
)
;

boundaryField
{
    left
    {
        type            fixedGradient;
        gradient        uniform 500;
    }
    right
    {
        type            uniformFixedValue;
        uniformValue    
        {
            type            sine;
            amplitude       
            {
                type            constant;
                value           20;
            }
            frequency       1.1574e-05;
            start           0;
            level           
            {
                type            constant;
                value           293;
            }
        }
        value           uniform 283;
    }
    frontAndBack
    {
        type            empty;
    }
    top_bottom
    {
        type            zeroGradient;
    }
}


// ************************************************************************* //
