/*--------------------------------*- C++ -*----------------------------------*\
  =========                 |
  \\      /  F ield         | OpenFOAM: The Open Source CFD Toolbox
   \\    /   O peration     | Website:  https://openfoam.org
    \\  /    A nd           | Version:  9
     \\/     M anipulation  |
\*---------------------------------------------------------------------------*/
FoamFile
{
    format      ascii;
    class       volScalarField;
    location    "50400";
    object      T_0;
}
// * * * * * * * * * * * * * * * * * * * * * * * * * * * * * * * * * * * * * //

dimensions      [0 0 0 1 0 0 0];

internalField   nonuniform List<scalar> 
100
(
368.386
367.392
366.404
365.421
364.444
363.473
362.508
361.549
360.595
359.647
358.705
357.768
356.837
355.911
354.991
354.076
353.166
352.262
351.363
350.47
349.581
348.698
347.819
346.945
346.076
345.212
344.352
343.497
342.646
341.799
340.957
340.119
339.285
338.454
337.627
336.804
335.984
335.168
334.355
333.545
332.738
331.933
331.132
330.333
329.536
328.741
327.948
327.158
326.369
325.581
324.795
324.01
323.226
322.443
321.661
320.879
320.097
319.316
318.534
317.752
316.97
316.187
315.404
314.619
313.833
313.046
312.257
311.466
310.674
309.879
309.081
308.281
307.478
306.672
305.863
305.05
304.233
303.413
302.589
301.76
300.926
300.088
299.245
298.396
297.543
296.683
295.818
294.947
294.069
293.185
292.294
291.396
290.492
289.58
288.66
287.733
286.797
285.854
284.902
283.942
)
;

boundaryField
{
    left
    {
        type            fixedGradient;
        gradient        uniform 500;
    }
    right
    {
        type            uniformFixedValue;
        uniformValue    
        {
            type            sine;
            amplitude       
            {
                type            constant;
                value           20;
            }
            frequency       1.1574e-05;
            start           0;
            level           
            {
                type            constant;
                value           293;
            }
        }
        value           uniform 283.457;
    }
    frontAndBack
    {
        type            empty;
    }
    top_bottom
    {
        type            zeroGradient;
    }
}


// ************************************************************************* //
