/*--------------------------------*- C++ -*----------------------------------*\
  =========                 |
  \\      /  F ield         | OpenFOAM: The Open Source CFD Toolbox
   \\    /   O peration     | Website:  https://openfoam.org
    \\  /    A nd           | Version:  9
     \\/     M anipulation  |
\*---------------------------------------------------------------------------*/
FoamFile
{
    format      ascii;
    class       volScalarField;
    location    "133200";
    object      ddt0(T);
}
// * * * * * * * * * * * * * * * * * * * * * * * * * * * * * * * * * * * * * //

dimensions      [0 0 -1 1 0 0 0];

internalField   nonuniform List<scalar> 
100
(
-7.7776e-05
-7.8095e-05
-7.8733e-05
-7.969e-05
-8.09657e-05
-8.25601e-05
-8.4473e-05
-8.67041e-05
-8.92532e-05
-9.21199e-05
-9.5304e-05
-9.88051e-05
-0.000102623
-0.000106756
-0.000111205
-0.000115969
-0.000121048
-0.00012644
-0.000132146
-0.000138163
-0.000144492
-0.000151132
-0.000158081
-0.00016534
-0.000172906
-0.000180779
-0.000188957
-0.00019744
-0.000206226
-0.000215314
-0.000224702
-0.000234389
-0.000244374
-0.000254655
-0.00026523
-0.000276097
-0.000287255
-0.000298701
-0.000310435
-0.000322452
-0.000334752
-0.000347333
-0.000360191
-0.000373324
-0.000386729
-0.000400405
-0.000414347
-0.000428554
-0.000443022
-0.000457748
-0.000472729
-0.00048796
-0.00050344
-0.000519163
-0.000535127
-0.000551327
-0.000567759
-0.000584419
-0.000601303
-0.000618405
-0.000635721
-0.000653247
-0.000670977
-0.000688906
-0.000707028
-0.000725338
-0.000743831
-0.000762499
-0.000781338
-0.00080034
-0.000819499
-0.000838808
-0.00085826
-0.000877849
-0.000897566
-0.000917403
-0.000937354
-0.000957409
-0.000977561
-0.000997801
-0.00101812
-0.00103851
-0.00105896
-0.00107946
-0.00109999
-0.00112057
-0.00114116
-0.00116175
-0.00118235
-0.00120294
-0.0012235
-0.00124402
-0.00126449
-0.0012849
-0.00130524
-0.00132549
-0.00134563
-0.00136567
-0.00138557
-0.00140533
)
;

boundaryField
{
    left
    {
        type            calculated;
        value           uniform -7.7776e-05;
    }
    right
    {
        type            calculated;
        value           uniform -0.00141512;
    }
    frontAndBack
    {
        type            empty;
    }
    top_bottom
    {
        type            calculated;
        value           nonuniform List<scalar> 
200
(
-7.7776e-05
-7.8095e-05
-7.8733e-05
-7.969e-05
-8.09657e-05
-8.25601e-05
-8.4473e-05
-8.67041e-05
-8.92532e-05
-9.21199e-05
-9.5304e-05
-9.88051e-05
-0.000102623
-0.000106756
-0.000111205
-0.000115969
-0.000121048
-0.00012644
-0.000132146
-0.000138163
-0.000144492
-0.000151132
-0.000158081
-0.00016534
-0.000172906
-0.000180779
-0.000188957
-0.00019744
-0.000206226
-0.000215314
-0.000224702
-0.000234389
-0.000244374
-0.000254655
-0.00026523
-0.000276097
-0.000287255
-0.000298701
-0.000310435
-0.000322452
-0.000334752
-0.000347333
-0.000360191
-0.000373324
-0.000386729
-0.000400405
-0.000414347
-0.000428554
-0.000443022
-0.000457748
-0.000472729
-0.00048796
-0.00050344
-0.000519163
-0.000535127
-0.000551327
-0.000567759
-0.000584419
-0.000601303
-0.000618405
-0.000635721
-0.000653247
-0.000670977
-0.000688906
-0.000707028
-0.000725338
-0.000743831
-0.000762499
-0.000781338
-0.00080034
-0.000819499
-0.000838808
-0.00085826
-0.000877849
-0.000897566
-0.000917403
-0.000937354
-0.000957409
-0.000977561
-0.000997801
-0.00101812
-0.00103851
-0.00105896
-0.00107946
-0.00109999
-0.00112057
-0.00114116
-0.00116175
-0.00118235
-0.00120294
-0.0012235
-0.00124402
-0.00126449
-0.0012849
-0.00130524
-0.00132549
-0.00134563
-0.00136567
-0.00138557
-0.00140533
-7.7776e-05
-7.8095e-05
-7.8733e-05
-7.969e-05
-8.09657e-05
-8.25601e-05
-8.4473e-05
-8.67041e-05
-8.92532e-05
-9.21199e-05
-9.5304e-05
-9.88051e-05
-0.000102623
-0.000106756
-0.000111205
-0.000115969
-0.000121048
-0.00012644
-0.000132146
-0.000138163
-0.000144492
-0.000151132
-0.000158081
-0.00016534
-0.000172906
-0.000180779
-0.000188957
-0.00019744
-0.000206226
-0.000215314
-0.000224702
-0.000234389
-0.000244374
-0.000254655
-0.00026523
-0.000276097
-0.000287255
-0.000298701
-0.000310435
-0.000322452
-0.000334752
-0.000347333
-0.000360191
-0.000373324
-0.000386729
-0.000400405
-0.000414347
-0.000428554
-0.000443022
-0.000457748
-0.000472729
-0.00048796
-0.00050344
-0.000519163
-0.000535127
-0.000551327
-0.000567759
-0.000584419
-0.000601303
-0.000618405
-0.000635721
-0.000653247
-0.000670977
-0.000688906
-0.000707028
-0.000725338
-0.000743831
-0.000762499
-0.000781338
-0.00080034
-0.000819499
-0.000838808
-0.00085826
-0.000877849
-0.000897566
-0.000917403
-0.000937354
-0.000957409
-0.000977561
-0.000997801
-0.00101812
-0.00103851
-0.00105896
-0.00107946
-0.00109999
-0.00112057
-0.00114116
-0.00116175
-0.00118235
-0.00120294
-0.0012235
-0.00124402
-0.00126449
-0.0012849
-0.00130524
-0.00132549
-0.00134563
-0.00136567
-0.00138557
-0.00140533
)
;
    }
}


// ************************************************************************* //
