/*--------------------------------*- C++ -*----------------------------------*\
  =========                 |
  \\      /  F ield         | OpenFOAM: The Open Source CFD Toolbox
   \\    /   O peration     | Website:  https://openfoam.org
    \\  /    A nd           | Version:  9
     \\/     M anipulation  |
\*---------------------------------------------------------------------------*/
FoamFile
{
    format      ascii;
    class       volScalarField;
    location    "133200";
    object      gradTx;
}
// * * * * * * * * * * * * * * * * * * * * * * * * * * * * * * * * * * * * * //

dimensions      [0 -1 0 1 0 0 0];

internalField   nonuniform List<scalar> 
100
(
-500.163
-500.489
-500.816
-501.147
-501.481
-501.82
-502.165
-502.517
-502.877
-503.247
-503.627
-504.018
-504.422
-504.84
-505.272
-505.72
-506.185
-506.668
-507.17
-507.692
-508.235
-508.8
-509.388
-510.001
-510.639
-511.304
-511.996
-512.717
-513.467
-514.247
-515.059
-515.904
-516.783
-517.696
-518.644
-519.63
-520.653
-521.714
-522.815
-523.957
-525.14
-526.366
-527.635
-528.948
-530.307
-531.712
-533.164
-534.663
-536.212
-537.811
-539.46
-541.16
-542.913
-544.719
-546.579
-548.493
-550.463
-552.49
-554.573
-556.714
-558.913
-561.172
-563.49
-565.869
-568.309
-570.811
-573.375
-576.003
-578.693
-581.448
-584.267
-587.152
-590.102
-593.117
-596.2
-599.349
-602.565
-605.848
-609.2
-612.619
-616.107
-619.663
-623.288
-626.981
-630.744
-634.575
-638.476
-642.445
-646.484
-650.592
-654.768
-659.013
-663.326
-667.707
-672.157
-676.673
-681.257
-685.908
-690.625
-695.408
)
;

boundaryField
{
    left
    {
        type            calculated;
        value           uniform -500;
    }
    right
    {
        type            calculated;
        value           uniform -697.815;
    }
    frontAndBack
    {
        type            empty;
    }
    top_bottom
    {
        type            calculated;
        value           nonuniform List<scalar> 
200
(
-500.163
-500.489
-500.816
-501.147
-501.481
-501.82
-502.165
-502.517
-502.877
-503.247
-503.627
-504.018
-504.422
-504.84
-505.272
-505.72
-506.185
-506.668
-507.17
-507.692
-508.235
-508.8
-509.388
-510.001
-510.639
-511.304
-511.996
-512.717
-513.467
-514.247
-515.059
-515.904
-516.783
-517.696
-518.644
-519.63
-520.653
-521.714
-522.815
-523.957
-525.14
-526.366
-527.635
-528.948
-530.307
-531.712
-533.164
-534.663
-536.212
-537.811
-539.46
-541.16
-542.913
-544.719
-546.579
-548.493
-550.463
-552.49
-554.573
-556.714
-558.913
-561.172
-563.49
-565.869
-568.309
-570.811
-573.375
-576.003
-578.693
-581.448
-584.267
-587.152
-590.102
-593.117
-596.2
-599.349
-602.565
-605.848
-609.2
-612.619
-616.107
-619.663
-623.288
-626.981
-630.744
-634.575
-638.476
-642.445
-646.484
-650.592
-654.768
-659.013
-663.326
-667.707
-672.157
-676.673
-681.257
-685.908
-690.625
-695.408
-500.163
-500.489
-500.816
-501.147
-501.481
-501.82
-502.165
-502.517
-502.877
-503.247
-503.627
-504.018
-504.422
-504.84
-505.272
-505.72
-506.185
-506.668
-507.17
-507.692
-508.235
-508.8
-509.388
-510.001
-510.639
-511.304
-511.996
-512.717
-513.467
-514.247
-515.059
-515.904
-516.783
-517.696
-518.644
-519.63
-520.653
-521.714
-522.815
-523.957
-525.14
-526.366
-527.635
-528.948
-530.307
-531.712
-533.164
-534.663
-536.212
-537.811
-539.46
-541.16
-542.913
-544.719
-546.579
-548.493
-550.463
-552.49
-554.573
-556.714
-558.913
-561.172
-563.49
-565.869
-568.309
-570.811
-573.375
-576.003
-578.693
-581.448
-584.267
-587.152
-590.102
-593.117
-596.2
-599.349
-602.565
-605.848
-609.2
-612.619
-616.107
-619.663
-623.288
-626.981
-630.744
-634.575
-638.476
-642.445
-646.484
-650.592
-654.768
-659.013
-663.326
-667.707
-672.157
-676.673
-681.257
-685.908
-690.625
-695.408
)
;
    }
}


// ************************************************************************* //
