/*--------------------------------*- C++ -*----------------------------------*\
  =========                 |
  \\      /  F ield         | OpenFOAM: The Open Source CFD Toolbox
   \\    /   O peration     | Website:  https://openfoam.org
    \\  /    A nd           | Version:  9
     \\/     M anipulation  |
\*---------------------------------------------------------------------------*/
FoamFile
{
    format      ascii;
    class       volScalarField;
    location    "133200";
    object      T;
}
// * * * * * * * * * * * * * * * * * * * * * * * * * * * * * * * * * * * * * //

dimensions      [0 0 0 1 0 0 0];

internalField   nonuniform List<scalar> 
100
(
399.165
398.165
397.163
396.161
395.159
394.155
393.151
392.147
391.141
390.135
389.128
388.121
387.112
386.103
385.093
384.082
383.07
382.057
381.043
380.029
379.013
377.996
376.977
375.958
374.937
373.915
372.892
371.867
370.841
369.814
368.784
367.753
366.721
365.686
364.65
363.612
362.571
361.529
360.485
359.438
358.389
357.337
356.283
355.227
354.167
353.105
352.041
350.973
349.902
348.828
347.751
346.67
345.586
344.498
343.407
342.312
341.213
340.11
339.003
337.892
336.776
335.656
334.532
333.402
332.268
331.129
329.985
328.836
327.681
326.521
325.355
324.184
323.007
321.823
320.634
319.439
318.237
317.028
315.813
314.592
313.363
312.127
310.884
309.634
308.376
307.111
305.838
304.557
303.268
301.971
300.666
299.352
298.03
296.699
295.359
294.01
292.652
291.285
289.909
288.523
)
;

boundaryField
{
    left
    {
        type            fixedGradient;
        gradient        uniform 500;
    }
    right
    {
        type            uniformFixedValue;
        uniformValue    
        {
            type            sine;
            amplitude       
            {
                type            constant;
                value           20;
            }
            frequency       1.1574e-05;
            start           0;
            level           
            {
                type            constant;
                value           293;
            }
        }
        value           uniform 287.825;
    }
    frontAndBack
    {
        type            empty;
    }
    top_bottom
    {
        type            zeroGradient;
    }
}


// ************************************************************************* //
