/*--------------------------------*- C++ -*----------------------------------*\
  =========                 |
  \\      /  F ield         | OpenFOAM: The Open Source CFD Toolbox
   \\    /   O peration     | Website:  https://openfoam.org
    \\  /    A nd           | Version:  9
     \\/     M anipulation  |
\*---------------------------------------------------------------------------*/
FoamFile
{
    format      ascii;
    class       volScalarField;
    location    "133200";
    object      T_0;
}
// * * * * * * * * * * * * * * * * * * * * * * * * * * * * * * * * * * * * * //

dimensions      [0 0 0 1 0 0 0];

internalField   nonuniform List<scalar> 
100
(
399.197
398.196
397.195
396.194
395.191
394.189
393.185
392.181
391.177
390.172
389.166
388.16
387.153
386.145
385.136
384.127
383.117
382.106
381.094
380.082
379.068
378.053
377.038
376.021
375.003
373.984
372.964
371.942
370.919
369.894
368.868
367.841
366.812
365.781
364.749
363.714
362.678
361.64
360.599
359.557
358.512
357.465
356.416
355.364
354.31
353.253
352.193
351.13
350.064
348.996
347.924
346.848
345.77
344.688
343.602
342.513
341.42
340.323
339.222
338.117
337.008
335.894
334.775
333.652
332.525
331.392
330.255
329.112
327.964
326.811
325.652
324.487
323.317
322.141
320.959
319.77
318.575
317.374
316.166
314.952
313.73
312.502
311.266
310.023
308.773
307.515
306.249
304.975
303.694
302.404
301.106
299.799
298.484
297.16
295.828
294.486
293.135
291.775
290.406
289.027
)
;

boundaryField
{
    left
    {
        type            fixedGradient;
        gradient        uniform 500;
    }
    right
    {
        type            uniformFixedValue;
        uniformValue    
        {
            type            sine;
            amplitude       
            {
                type            constant;
                value           20;
            }
            frequency       1.1574e-05;
            start           0;
            level           
            {
                type            constant;
                value           293;
            }
        }
        value           uniform 288.332;
    }
    frontAndBack
    {
        type            empty;
    }
    top_bottom
    {
        type            zeroGradient;
    }
}


// ************************************************************************* //
