/*--------------------------------*- C++ -*----------------------------------*\
  =========                 |
  \\      /  F ield         | OpenFOAM: The Open Source CFD Toolbox
   \\    /   O peration     | Website:  https://openfoam.org
    \\  /    A nd           | Version:  9
     \\/     M anipulation  |
\*---------------------------------------------------------------------------*/
FoamFile
{
    format      ascii;
    class       volScalarField;
    location    "39600";
    object      ddt0(T);
}
// * * * * * * * * * * * * * * * * * * * * * * * * * * * * * * * * * * * * * //

dimensions      [0 0 -1 1 0 0 0];

internalField   nonuniform List<scalar> 
100
(
0.00185226
0.00185155
0.00185014
0.00184801
0.00184517
0.00184163
0.00183738
0.00183242
0.00182675
0.00182038
0.0018133
0.00180551
0.00179702
0.00178783
0.00177793
0.00176732
0.00175602
0.00174401
0.00173131
0.0017179
0.00170379
0.00168899
0.00167349
0.0016573
0.00164042
0.00162284
0.00160457
0.00158561
0.00156597
0.00154564
0.00152462
0.00150293
0.00148055
0.0014575
0.00143377
0.00140937
0.00138429
0.00135855
0.00133214
0.00130506
0.00127733
0.00124893
0.00121988
0.00119017
0.00115982
0.00112882
0.00109717
0.00106489
0.00103196
0.000998408
0.000964221
0.000929409
0.000893975
0.000857922
0.000821256
0.00078398
0.000746099
0.000707617
0.000668539
0.000628871
0.000588616
0.00054778
0.000506369
0.000464387
0.000421841
0.000378736
0.000335079
0.000290875
0.00024613
0.000200852
0.000155046
0.00010872
6.18811e-05
1.45359e-05
-3.33079e-05
-8.16426e-05
-0.00013046
-0.000179753
-0.000229512
-0.00027973
-0.000330397
-0.000381504
-0.000433042
-0.000485002
-0.000537374
-0.000590148
-0.000643314
-0.00069686
-0.000750777
-0.000805054
-0.000859678
-0.000914639
-0.000969924
-0.00102552
-0.00108142
-0.0011376
-0.00119406
-0.00125078
-0.00130774
-0.00136494
)
;

boundaryField
{
    left
    {
        type            calculated;
        value           uniform 0.00185226;
    }
    right
    {
        type            calculated;
        value           uniform -0.00139365;
    }
    frontAndBack
    {
        type            empty;
    }
    top_bottom
    {
        type            calculated;
        value           nonuniform List<scalar> 
200
(
0.00185226
0.00185155
0.00185014
0.00184801
0.00184517
0.00184163
0.00183738
0.00183242
0.00182675
0.00182038
0.0018133
0.00180551
0.00179702
0.00178783
0.00177793
0.00176732
0.00175602
0.00174401
0.00173131
0.0017179
0.00170379
0.00168899
0.00167349
0.0016573
0.00164042
0.00162284
0.00160457
0.00158561
0.00156597
0.00154564
0.00152462
0.00150293
0.00148055
0.0014575
0.00143377
0.00140937
0.00138429
0.00135855
0.00133214
0.00130506
0.00127733
0.00124893
0.00121988
0.00119017
0.00115982
0.00112882
0.00109717
0.00106489
0.00103196
0.000998408
0.000964221
0.000929409
0.000893975
0.000857922
0.000821256
0.00078398
0.000746099
0.000707617
0.000668539
0.000628871
0.000588616
0.00054778
0.000506369
0.000464387
0.000421841
0.000378736
0.000335079
0.000290875
0.00024613
0.000200852
0.000155046
0.00010872
6.18811e-05
1.45359e-05
-3.33079e-05
-8.16426e-05
-0.00013046
-0.000179753
-0.000229512
-0.00027973
-0.000330397
-0.000381504
-0.000433042
-0.000485002
-0.000537374
-0.000590148
-0.000643314
-0.00069686
-0.000750777
-0.000805054
-0.000859678
-0.000914639
-0.000969924
-0.00102552
-0.00108142
-0.0011376
-0.00119406
-0.00125078
-0.00130774
-0.00136494
0.00185226
0.00185155
0.00185014
0.00184801
0.00184517
0.00184163
0.00183738
0.00183242
0.00182675
0.00182038
0.0018133
0.00180551
0.00179702
0.00178783
0.00177793
0.00176732
0.00175602
0.00174401
0.00173131
0.0017179
0.00170379
0.00168899
0.00167349
0.0016573
0.00164042
0.00162284
0.00160457
0.00158561
0.00156597
0.00154564
0.00152462
0.00150293
0.00148055
0.0014575
0.00143377
0.00140937
0.00138429
0.00135855
0.00133214
0.00130506
0.00127733
0.00124893
0.00121988
0.00119017
0.00115982
0.00112882
0.00109717
0.00106489
0.00103196
0.000998408
0.000964221
0.000929409
0.000893975
0.000857922
0.000821256
0.00078398
0.000746099
0.000707617
0.000668539
0.000628871
0.000588616
0.00054778
0.000506369
0.000464387
0.000421841
0.000378736
0.000335079
0.000290875
0.00024613
0.000200852
0.000155046
0.00010872
6.18811e-05
1.45359e-05
-3.33079e-05
-8.16426e-05
-0.00013046
-0.000179753
-0.000229512
-0.00027973
-0.000330397
-0.000381504
-0.000433042
-0.000485002
-0.000537374
-0.000590148
-0.000643314
-0.00069686
-0.000750777
-0.000805054
-0.000859678
-0.000914639
-0.000969924
-0.00102552
-0.00108142
-0.0011376
-0.00119406
-0.00125078
-0.00130774
-0.00136494
)
;
    }
}


// ************************************************************************* //
