/*--------------------------------*- C++ -*----------------------------------*\
  =========                 |
  \\      /  F ield         | OpenFOAM: The Open Source CFD Toolbox
   \\    /   O peration     | Website:  https://openfoam.org
    \\  /    A nd           | Version:  9
     \\/     M anipulation  |
\*---------------------------------------------------------------------------*/
FoamFile
{
    format      ascii;
    class       volScalarField;
    location    "39600";
    object      gradTx;
}
// * * * * * * * * * * * * * * * * * * * * * * * * * * * * * * * * * * * * * //

dimensions      [0 -1 0 1 0 0 0];

internalField   nonuniform List<scalar> 
100
(
-496.87
-490.611
-484.357
-478.108
-471.867
-465.638
-459.422
-453.222
-447.04
-440.879
-434.74
-428.628
-422.543
-416.489
-410.467
-404.481
-398.532
-392.623
-386.757
-380.936
-375.161
-369.437
-363.764
-358.146
-352.584
-347.082
-341.641
-336.264
-330.954
-325.712
-320.541
-315.443
-310.421
-305.477
-300.613
-295.831
-291.135
-286.525
-282.006
-277.577
-273.243
-269.006
-264.866
-260.828
-256.892
-253.062
-249.339
-245.725
-242.224
-238.836
-235.565
-232.412
-229.379
-226.468
-223.683
-221.024
-218.493
-216.094
-213.827
-211.695
-209.7
-207.844
-206.129
-204.556
-203.129
-201.847
-200.715
-199.732
-198.902
-198.226
-197.705
-197.343
-197.139
-197.097
-197.217
-197.501
-197.952
-198.57
-199.358
-200.316
-201.447
-202.752
-204.231
-205.888
-207.722
-209.736
-211.931
-214.308
-216.868
-219.612
-222.543
-225.66
-228.965
-232.458
-236.142
-240.017
-244.083
-248.342
-252.794
-257.441
)
;

boundaryField
{
    left
    {
        type            calculated;
        value           uniform -500;
    }
    right
    {
        type            calculated;
        value           uniform -259.813;
    }
    frontAndBack
    {
        type            empty;
    }
    top_bottom
    {
        type            calculated;
        value           nonuniform List<scalar> 
200
(
-496.87
-490.611
-484.357
-478.108
-471.867
-465.638
-459.422
-453.222
-447.04
-440.879
-434.74
-428.628
-422.543
-416.489
-410.467
-404.481
-398.532
-392.623
-386.757
-380.936
-375.161
-369.437
-363.764
-358.146
-352.584
-347.082
-341.641
-336.264
-330.954
-325.712
-320.541
-315.443
-310.421
-305.477
-300.613
-295.831
-291.135
-286.525
-282.006
-277.577
-273.243
-269.006
-264.866
-260.828
-256.892
-253.062
-249.339
-245.725
-242.224
-238.836
-235.565
-232.412
-229.379
-226.468
-223.683
-221.024
-218.493
-216.094
-213.827
-211.695
-209.7
-207.844
-206.129
-204.556
-203.129
-201.847
-200.715
-199.732
-198.902
-198.226
-197.705
-197.343
-197.139
-197.097
-197.217
-197.501
-197.952
-198.57
-199.358
-200.316
-201.447
-202.752
-204.231
-205.888
-207.722
-209.736
-211.931
-214.308
-216.868
-219.612
-222.543
-225.66
-228.965
-232.458
-236.142
-240.017
-244.083
-248.342
-252.794
-257.441
-496.87
-490.611
-484.357
-478.108
-471.867
-465.638
-459.422
-453.222
-447.04
-440.879
-434.74
-428.628
-422.543
-416.489
-410.467
-404.481
-398.532
-392.623
-386.757
-380.936
-375.161
-369.437
-363.764
-358.146
-352.584
-347.082
-341.641
-336.264
-330.954
-325.712
-320.541
-315.443
-310.421
-305.477
-300.613
-295.831
-291.135
-286.525
-282.006
-277.577
-273.243
-269.006
-264.866
-260.828
-256.892
-253.062
-249.339
-245.725
-242.224
-238.836
-235.565
-232.412
-229.379
-226.468
-223.683
-221.024
-218.493
-216.094
-213.827
-211.695
-209.7
-207.844
-206.129
-204.556
-203.129
-201.847
-200.715
-199.732
-198.902
-198.226
-197.705
-197.343
-197.139
-197.097
-197.217
-197.501
-197.952
-198.57
-199.358
-200.316
-201.447
-202.752
-204.231
-205.888
-207.722
-209.736
-211.931
-214.308
-216.868
-219.612
-222.543
-225.66
-228.965
-232.458
-236.142
-240.017
-244.083
-248.342
-252.794
-257.441
)
;
    }
}


// ************************************************************************* //
