/*--------------------------------*- C++ -*----------------------------------*\
  =========                 |
  \\      /  F ield         | OpenFOAM: The Open Source CFD Toolbox
   \\    /   O peration     | Website:  https://openfoam.org
    \\  /    A nd           | Version:  9
     \\/     M anipulation  |
\*---------------------------------------------------------------------------*/
FoamFile
{
    format      ascii;
    class       volScalarField;
    location    "39600";
    object      T;
}
// * * * * * * * * * * * * * * * * * * * * * * * * * * * * * * * * * * * * * //

dimensions      [0 0 0 1 0 0 0];

internalField   nonuniform List<scalar> 
100
(
354.731
353.743
352.768
351.806
350.856
349.919
348.994
348.081
347.181
346.293
345.417
344.554
343.703
342.864
342.037
341.222
340.419
339.628
338.848
338.081
337.324
336.58
335.847
335.125
334.414
333.715
333.026
332.348
331.681
331.024
330.378
329.742
329.116
328.5
327.894
327.298
326.711
326.133
325.565
325.005
324.455
323.912
323.378
322.853
322.335
321.825
321.323
320.828
320.34
319.859
319.385
318.917
318.455
317.999
317.549
317.105
316.665
316.231
315.801
315.375
314.954
314.536
314.123
313.712
313.304
312.899
312.497
312.097
311.698
311.301
310.905
310.51
310.116
309.722
309.327
308.933
308.537
308.141
307.743
307.343
306.942
306.538
306.131
305.721
305.307
304.89
304.468
304.042
303.611
303.175
302.733
302.284
301.83
301.369
300.9
300.424
299.94
299.448
298.947
298.437
)
;

boundaryField
{
    left
    {
        type            fixedGradient;
        gradient        uniform 500;
    }
    right
    {
        type            uniformFixedValue;
        uniformValue    
        {
            type            sine;
            amplitude       
            {
                type            constant;
                value           20;
            }
            frequency       1.1574e-05;
            start           0;
            level           
            {
                type            constant;
                value           293;
            }
        }
        value           uniform 298.177;
    }
    frontAndBack
    {
        type            empty;
    }
    top_bottom
    {
        type            zeroGradient;
    }
}


// ************************************************************************* //
