/*--------------------------------*- C++ -*----------------------------------*\
  =========                 |
  \\      /  F ield         | OpenFOAM: The Open Source CFD Toolbox
   \\    /   O peration     | Website:  https://openfoam.org
    \\  /    A nd           | Version:  9
     \\/     M anipulation  |
\*---------------------------------------------------------------------------*/
FoamFile
{
    format      ascii;
    class       volScalarField;
    location    "39600";
    object      T_0;
}
// * * * * * * * * * * * * * * * * * * * * * * * * * * * * * * * * * * * * * //

dimensions      [0 0 0 1 0 0 0];

internalField   nonuniform List<scalar> 
100
(
354.072
353.085
352.11
351.149
350.2
349.263
348.34
347.429
346.531
345.645
344.772
343.912
343.063
342.228
341.404
340.593
339.794
339.007
338.233
337.47
336.719
335.98
335.252
334.536
333.831
333.138
332.456
331.785
331.125
330.475
329.837
329.208
328.591
327.983
327.386
326.798
326.22
325.652
325.093
324.543
324.002
323.47
322.947
322.432
321.925
321.426
320.935
320.452
319.975
319.507
319.044
318.589
318.14
317.697
317.26
316.829
316.403
315.982
315.567
315.155
314.748
314.346
313.946
313.551
313.159
312.769
312.382
311.998
311.615
311.234
310.855
310.477
310.099
309.722
309.345
308.967
308.589
308.211
307.831
307.449
307.066
306.68
306.291
305.9
305.505
305.107
304.704
304.297
303.885
303.468
303.046
302.617
302.182
301.741
301.292
300.837
300.373
299.901
299.42
298.93
)
;

boundaryField
{
    left
    {
        type            fixedGradient;
        gradient        uniform 500;
    }
    right
    {
        type            uniformFixedValue;
        uniformValue    
        {
            type            sine;
            amplitude       
            {
                type            constant;
                value           20;
            }
            frequency       1.1574e-05;
            start           0;
            level           
            {
                type            constant;
                value           293;
            }
        }
        value           uniform 298.681;
    }
    frontAndBack
    {
        type            empty;
    }
    top_bottom
    {
        type            zeroGradient;
    }
}


// ************************************************************************* //
