/*--------------------------------*- C++ -*----------------------------------*\
  =========                 |
  \\      /  F ield         | OpenFOAM: The Open Source CFD Toolbox
   \\    /   O peration     | Website:  https://openfoam.org
    \\  /    A nd           | Version:  9
     \\/     M anipulation  |
\*---------------------------------------------------------------------------*/
FoamFile
{
    format      ascii;
    class       volScalarField;
    location    "162000";
    object      ddt0(T);
}
// * * * * * * * * * * * * * * * * * * * * * * * * * * * * * * * * * * * * * //

dimensions      [0 0 -1 1 0 0 0];

internalField   nonuniform List<scalar> 
100
(
-0.000436262
-0.000436056
-0.000435645
-0.000435027
-0.000434203
-0.000433171
-0.000431932
-0.000430485
-0.000428829
-0.000426963
-0.000424886
-0.000422597
-0.000420094
-0.000417377
-0.000414443
-0.000411291
-0.000407919
-0.000404326
-0.00040051
-0.000396468
-0.000392198
-0.000387699
-0.000382967
-0.000378
-0.000372796
-0.000367352
-0.000361665
-0.000355733
-0.000349552
-0.000343119
-0.000336431
-0.000329485
-0.000322278
-0.000314806
-0.000307065
-0.000299052
-0.000290763
-0.000282195
-0.000273343
-0.000264204
-0.000254774
-0.000245048
-0.000235023
-0.000224694
-0.000214056
-0.000203107
-0.00019184
-0.000180252
-0.000168338
-0.000156094
-0.000143515
-0.000130597
-0.000117333
-0.000103721
-8.9755e-05
-7.54302e-05
-6.07419e-05
-4.56852e-05
-3.02552e-05
-1.44471e-05
1.74409e-06
1.83232e-05
3.52953e-05
5.26651e-05
7.04377e-05
8.86179e-05
0.000107211
0.000126221
0.000145653
0.000165513
0.000185804
0.000206532
0.000227701
0.000249317
0.000271383
0.000293904
0.000316885
0.000340329
0.000364243
0.000388629
0.000413491
0.000438835
0.000464663
0.000490981
0.000517791
0.000545097
0.000572902
0.000601211
0.000630026
0.00065935
0.000689186
0.000719537
0.000750406
0.000781795
0.000813707
0.000846142
0.000879104
0.000912593
0.000946611
0.00098116
)
;

boundaryField
{
    left
    {
        type            calculated;
        value           uniform -0.000436262;
    }
    right
    {
        type            calculated;
        value           uniform 0.0009987;
    }
    frontAndBack
    {
        type            empty;
    }
    top_bottom
    {
        type            calculated;
        value           nonuniform List<scalar> 
200
(
-0.000436262
-0.000436056
-0.000435645
-0.000435027
-0.000434203
-0.000433171
-0.000431932
-0.000430485
-0.000428829
-0.000426963
-0.000424886
-0.000422597
-0.000420094
-0.000417377
-0.000414443
-0.000411291
-0.000407919
-0.000404326
-0.00040051
-0.000396468
-0.000392198
-0.000387699
-0.000382967
-0.000378
-0.000372796
-0.000367352
-0.000361665
-0.000355733
-0.000349552
-0.000343119
-0.000336431
-0.000329485
-0.000322278
-0.000314806
-0.000307065
-0.000299052
-0.000290763
-0.000282195
-0.000273343
-0.000264204
-0.000254774
-0.000245048
-0.000235023
-0.000224694
-0.000214056
-0.000203107
-0.00019184
-0.000180252
-0.000168338
-0.000156094
-0.000143515
-0.000130597
-0.000117333
-0.000103721
-8.9755e-05
-7.54302e-05
-6.07419e-05
-4.56852e-05
-3.02552e-05
-1.44471e-05
1.74409e-06
1.83232e-05
3.52953e-05
5.26651e-05
7.04377e-05
8.86179e-05
0.000107211
0.000126221
0.000145653
0.000165513
0.000185804
0.000206532
0.000227701
0.000249317
0.000271383
0.000293904
0.000316885
0.000340329
0.000364243
0.000388629
0.000413491
0.000438835
0.000464663
0.000490981
0.000517791
0.000545097
0.000572902
0.000601211
0.000630026
0.00065935
0.000689186
0.000719537
0.000750406
0.000781795
0.000813707
0.000846142
0.000879104
0.000912593
0.000946611
0.00098116
-0.000436262
-0.000436056
-0.000435645
-0.000435027
-0.000434203
-0.000433171
-0.000431932
-0.000430485
-0.000428829
-0.000426963
-0.000424886
-0.000422597
-0.000420094
-0.000417377
-0.000414443
-0.000411291
-0.000407919
-0.000404326
-0.00040051
-0.000396468
-0.000392198
-0.000387699
-0.000382967
-0.000378
-0.000372796
-0.000367352
-0.000361665
-0.000355733
-0.000349552
-0.000343119
-0.000336431
-0.000329485
-0.000322278
-0.000314806
-0.000307065
-0.000299052
-0.000290763
-0.000282195
-0.000273343
-0.000264204
-0.000254774
-0.000245048
-0.000235023
-0.000224694
-0.000214056
-0.000203107
-0.00019184
-0.000180252
-0.000168338
-0.000156094
-0.000143515
-0.000130597
-0.000117333
-0.000103721
-8.9755e-05
-7.54302e-05
-6.07419e-05
-4.56852e-05
-3.02552e-05
-1.44471e-05
1.74409e-06
1.83232e-05
3.52953e-05
5.26651e-05
7.04377e-05
8.86179e-05
0.000107211
0.000126221
0.000145653
0.000165513
0.000185804
0.000206532
0.000227701
0.000249317
0.000271383
0.000293904
0.000316885
0.000340329
0.000364243
0.000388629
0.000413491
0.000438835
0.000464663
0.000490981
0.000517791
0.000545097
0.000572902
0.000601211
0.000630026
0.00065935
0.000689186
0.000719537
0.000750406
0.000781795
0.000813707
0.000846142
0.000879104
0.000912593
0.000946611
0.00098116
)
;
    }
}


// ************************************************************************* //
