/*--------------------------------*- C++ -*----------------------------------*\
  =========                 |
  \\      /  F ield         | OpenFOAM: The Open Source CFD Toolbox
   \\    /   O peration     | Website:  https://openfoam.org
    \\  /    A nd           | Version:  9
     \\/     M anipulation  |
\*---------------------------------------------------------------------------*/
FoamFile
{
    format      ascii;
    class       volScalarField;
    location    "162000";
    object      gradTx;
}
// * * * * * * * * * * * * * * * * * * * * * * * * * * * * * * * * * * * * * //

dimensions      [0 -1 0 1 0 0 0];

internalField   nonuniform List<scalar> 
100
(
-500.733
-502.2
-503.665
-505.128
-506.589
-508.047
-509.5
-510.949
-512.392
-513.829
-515.259
-516.681
-518.095
-519.5
-520.894
-522.278
-523.65
-525.01
-526.356
-527.689
-529.007
-530.31
-531.596
-532.865
-534.116
-535.348
-536.56
-537.752
-538.923
-540.071
-541.196
-542.297
-543.372
-544.422
-545.445
-546.441
-547.407
-548.344
-549.25
-550.124
-550.966
-551.774
-552.547
-553.284
-553.984
-554.647
-555.27
-555.853
-556.395
-556.894
-557.349
-557.76
-558.125
-558.443
-558.712
-558.932
-559.101
-559.217
-559.281
-559.289
-559.242
-559.137
-558.973
-558.749
-558.464
-558.116
-557.704
-557.226
-556.681
-556.068
-555.384
-554.629
-553.801
-552.898
-551.919
-550.862
-549.727
-548.51
-547.211
-545.828
-544.359
-542.804
-541.159
-539.423
-537.596
-535.675
-533.657
-531.543
-529.33
-527.016
-524.599
-522.078
-519.452
-516.717
-513.873
-510.918
-507.85
-504.667
-501.367
-497.949
)
;

boundaryField
{
    left
    {
        type            calculated;
        value           uniform -500;
    }
    right
    {
        type            calculated;
        value           uniform -496.211;
    }
    frontAndBack
    {
        type            empty;
    }
    top_bottom
    {
        type            calculated;
        value           nonuniform List<scalar> 
200
(
-500.733
-502.2
-503.665
-505.128
-506.589
-508.047
-509.5
-510.949
-512.392
-513.829
-515.259
-516.681
-518.095
-519.5
-520.894
-522.278
-523.65
-525.01
-526.356
-527.689
-529.007
-530.31
-531.596
-532.865
-534.116
-535.348
-536.56
-537.752
-538.923
-540.071
-541.196
-542.297
-543.372
-544.422
-545.445
-546.441
-547.407
-548.344
-549.25
-550.124
-550.966
-551.774
-552.547
-553.284
-553.984
-554.647
-555.27
-555.853
-556.395
-556.894
-557.349
-557.76
-558.125
-558.443
-558.712
-558.932
-559.101
-559.217
-559.281
-559.289
-559.242
-559.137
-558.973
-558.749
-558.464
-558.116
-557.704
-557.226
-556.681
-556.068
-555.384
-554.629
-553.801
-552.898
-551.919
-550.862
-549.727
-548.51
-547.211
-545.828
-544.359
-542.804
-541.159
-539.423
-537.596
-535.675
-533.657
-531.543
-529.33
-527.016
-524.599
-522.078
-519.452
-516.717
-513.873
-510.918
-507.85
-504.667
-501.367
-497.949
-500.733
-502.2
-503.665
-505.128
-506.589
-508.047
-509.5
-510.949
-512.392
-513.829
-515.259
-516.681
-518.095
-519.5
-520.894
-522.278
-523.65
-525.01
-526.356
-527.689
-529.007
-530.31
-531.596
-532.865
-534.116
-535.348
-536.56
-537.752
-538.923
-540.071
-541.196
-542.297
-543.372
-544.422
-545.445
-546.441
-547.407
-548.344
-549.25
-550.124
-550.966
-551.774
-552.547
-553.284
-553.984
-554.647
-555.27
-555.853
-556.395
-556.894
-557.349
-557.76
-558.125
-558.443
-558.712
-558.932
-559.101
-559.217
-559.281
-559.289
-559.242
-559.137
-558.973
-558.749
-558.464
-558.116
-557.704
-557.226
-556.681
-556.068
-555.384
-554.629
-553.801
-552.898
-551.919
-550.862
-549.727
-548.51
-547.211
-545.828
-544.359
-542.804
-541.159
-539.423
-537.596
-535.675
-533.657
-531.543
-529.33
-527.016
-524.599
-522.078
-519.452
-516.717
-513.873
-510.918
-507.85
-504.667
-501.367
-497.949
)
;
    }
}


// ************************************************************************* //
