/*--------------------------------*- C++ -*----------------------------------*\
  =========                 |
  \\      /  F ield         | OpenFOAM: The Open Source CFD Toolbox
   \\    /   O peration     | Website:  https://openfoam.org
    \\  /    A nd           | Version:  9
     \\/     M anipulation  |
\*---------------------------------------------------------------------------*/
FoamFile
{
    format      ascii;
    class       volScalarField;
    location    "162000";
    object      T;
}
// * * * * * * * * * * * * * * * * * * * * * * * * * * * * * * * * * * * * * //

dimensions      [0 0 0 1 0 0 0];

internalField   nonuniform List<scalar> 
100
(
385.945
384.942
383.937
382.928
381.916
380.901
379.884
378.863
377.84
376.814
375.785
374.753
373.718
372.68
371.64
370.597
369.551
368.502
367.451
366.397
365.34
364.281
363.219
362.154
361.087
360.018
358.946
357.872
356.795
355.716
354.635
353.551
352.466
351.378
350.288
349.196
348.102
347.006
345.909
344.809
343.708
342.605
341.501
340.395
339.288
338.179
337.069
335.958
334.846
333.733
332.618
331.503
330.387
329.271
328.154
327.036
325.918
324.8
323.681
322.562
321.444
320.325
319.207
318.09
316.972
315.856
314.74
313.625
312.511
311.398
310.287
309.177
308.068
306.961
305.857
304.754
303.653
302.555
301.459
300.366
299.276
298.189
297.105
296.024
294.947
293.874
292.804
291.739
290.678
289.622
288.57
287.523
286.482
285.445
284.415
283.39
282.371
281.358
280.352
279.353
)
;

boundaryField
{
    left
    {
        type            fixedGradient;
        gradient        uniform 500;
    }
    right
    {
        type            uniformFixedValue;
        uniformValue    
        {
            type            sine;
            amplitude       
            {
                type            constant;
                value           20;
            }
            frequency       1.1574e-05;
            start           0;
            level           
            {
                type            constant;
                value           293;
            }
        }
        value           uniform 278.857;
    }
    frontAndBack
    {
        type            empty;
    }
    top_bottom
    {
        type            zeroGradient;
    }
}


// ************************************************************************* //
