/*--------------------------------*- C++ -*----------------------------------*\
  =========                 |
  \\      /  F ield         | OpenFOAM: The Open Source CFD Toolbox
   \\    /   O peration     | Website:  https://openfoam.org
    \\  /    A nd           | Version:  9
     \\/     M anipulation  |
\*---------------------------------------------------------------------------*/
FoamFile
{
    format      ascii;
    class       volScalarField;
    location    "162000";
    object      T_0;
}
// * * * * * * * * * * * * * * * * * * * * * * * * * * * * * * * * * * * * * //

dimensions      [0 0 0 1 0 0 0];

internalField   nonuniform List<scalar> 
100
(
386.1
385.097
384.091
383.082
382.07
381.055
380.037
379.016
377.992
376.965
375.935
374.903
373.867
372.828
371.787
370.742
369.695
368.645
367.593
366.537
365.479
364.418
363.354
362.288
361.219
360.147
359.073
357.997
356.918
355.837
354.753
353.667
352.579
351.488
350.395
349.301
348.204
347.105
346.004
344.901
343.797
342.69
341.582
340.473
339.362
338.249
337.135
336.02
334.903
333.785
332.666
331.546
330.426
329.304
328.182
327.059
325.936
324.812
323.688
322.563
321.439
320.314
319.19
318.066
316.942
315.819
314.697
313.575
312.454
311.334
310.215
309.097
307.981
306.867
305.754
304.643
303.534
302.427
301.323
300.221
299.122
298.025
296.932
295.842
294.755
293.672
292.592
291.517
290.446
289.379
288.316
287.258
286.206
285.158
284.116
283.08
282.049
281.024
280.006
278.994
)
;

boundaryField
{
    left
    {
        type            fixedGradient;
        gradient        uniform 500;
    }
    right
    {
        type            uniformFixedValue;
        uniformValue    
        {
            type            sine;
            amplitude       
            {
                type            constant;
                value           20;
            }
            frequency       1.1574e-05;
            start           0;
            level           
            {
                type            constant;
                value           293;
            }
        }
        value           uniform 278.491;
    }
    frontAndBack
    {
        type            empty;
    }
    top_bottom
    {
        type            zeroGradient;
    }
}


// ************************************************************************* //
