/*--------------------------------*- C++ -*----------------------------------*\
  =========                 |
  \\      /  F ield         | OpenFOAM: The Open Source CFD Toolbox
   \\    /   O peration     | Website:  https://openfoam.org
    \\  /    A nd           | Version:  9
     \\/     M anipulation  |
\*---------------------------------------------------------------------------*/
FoamFile
{
    format      ascii;
    class       volScalarField;
    location    "54000";
    object      ddt0(T);
}
// * * * * * * * * * * * * * * * * * * * * * * * * * * * * * * * * * * * * * //

dimensions      [0 0 -1 1 0 0 0];

internalField   nonuniform List<scalar> 
100
(
0.000574819
0.000574344
0.000573392
0.000571966
0.000570065
0.00056769
0.000564841
0.000561521
0.000557729
0.000553468
0.000548738
0.000543542
0.000537881
0.000531758
0.000525174
0.000518132
0.000510634
0.000502683
0.000494282
0.000485434
0.000476143
0.00046641
0.000456241
0.000445639
0.000434607
0.00042315
0.000411272
0.000398978
0.000386272
0.000373159
0.000359643
0.000345731
0.000331428
0.000316738
0.000301668
0.000286224
0.000270412
0.000254237
0.000237708
0.000220829
0.000203609
0.000186054
0.000168172
0.000149969
0.000131455
0.000112636
9.35207e-05
7.41176e-05
5.4435e-05
3.44817e-05
1.42666e-05
-6.20114e-06
-2.69122e-05
-4.78569e-05
-6.90256e-05
-9.04081e-05
-0.000111994
-0.000133774
-0.000155736
-0.000177869
-0.000200163
-0.000222606
-0.000245187
-0.000267893
-0.000290713
-0.000313634
-0.000336644
-0.00035973
-0.000382878
-0.000406077
-0.000429312
-0.000452569
-0.000475834
-0.000499094
-0.000522333
-0.000545537
-0.000568691
-0.00059178
-0.000614788
-0.000637699
-0.000660498
-0.000683167
-0.000705691
-0.000728053
-0.000750235
-0.000772221
-0.000793992
-0.000815531
-0.000836819
-0.000857839
-0.000878571
-0.000898997
-0.000919097
-0.000938853
-0.000958243
-0.000977249
-0.00099585
-0.00101402
-0.00103175
-0.00104901
)
;

boundaryField
{
    left
    {
        type            calculated;
        value           uniform 0.000574819;
    }
    right
    {
        type            calculated;
        value           uniform -0.0010574;
    }
    frontAndBack
    {
        type            empty;
    }
    top_bottom
    {
        type            calculated;
        value           nonuniform List<scalar> 
200
(
0.000574819
0.000574344
0.000573392
0.000571966
0.000570065
0.00056769
0.000564841
0.000561521
0.000557729
0.000553468
0.000548738
0.000543542
0.000537881
0.000531758
0.000525174
0.000518132
0.000510634
0.000502683
0.000494282
0.000485434
0.000476143
0.00046641
0.000456241
0.000445639
0.000434607
0.00042315
0.000411272
0.000398978
0.000386272
0.000373159
0.000359643
0.000345731
0.000331428
0.000316738
0.000301668
0.000286224
0.000270412
0.000254237
0.000237708
0.000220829
0.000203609
0.000186054
0.000168172
0.000149969
0.000131455
0.000112636
9.35207e-05
7.41176e-05
5.4435e-05
3.44817e-05
1.42666e-05
-6.20114e-06
-2.69122e-05
-4.78569e-05
-6.90256e-05
-9.04081e-05
-0.000111994
-0.000133774
-0.000155736
-0.000177869
-0.000200163
-0.000222606
-0.000245187
-0.000267893
-0.000290713
-0.000313634
-0.000336644
-0.00035973
-0.000382878
-0.000406077
-0.000429312
-0.000452569
-0.000475834
-0.000499094
-0.000522333
-0.000545537
-0.000568691
-0.00059178
-0.000614788
-0.000637699
-0.000660498
-0.000683167
-0.000705691
-0.000728053
-0.000750235
-0.000772221
-0.000793992
-0.000815531
-0.000836819
-0.000857839
-0.000878571
-0.000898997
-0.000919097
-0.000938853
-0.000958243
-0.000977249
-0.00099585
-0.00101402
-0.00103175
-0.00104901
0.000574819
0.000574344
0.000573392
0.000571966
0.000570065
0.00056769
0.000564841
0.000561521
0.000557729
0.000553468
0.000548738
0.000543542
0.000537881
0.000531758
0.000525174
0.000518132
0.000510634
0.000502683
0.000494282
0.000485434
0.000476143
0.00046641
0.000456241
0.000445639
0.000434607
0.00042315
0.000411272
0.000398978
0.000386272
0.000373159
0.000359643
0.000345731
0.000331428
0.000316738
0.000301668
0.000286224
0.000270412
0.000254237
0.000237708
0.000220829
0.000203609
0.000186054
0.000168172
0.000149969
0.000131455
0.000112636
9.35207e-05
7.41176e-05
5.4435e-05
3.44817e-05
1.42666e-05
-6.20114e-06
-2.69122e-05
-4.78569e-05
-6.90256e-05
-9.04081e-05
-0.000111994
-0.000133774
-0.000155736
-0.000177869
-0.000200163
-0.000222606
-0.000245187
-0.000267893
-0.000290713
-0.000313634
-0.000336644
-0.00035973
-0.000382878
-0.000406077
-0.000429312
-0.000452569
-0.000475834
-0.000499094
-0.000522333
-0.000545537
-0.000568691
-0.00059178
-0.000614788
-0.000637699
-0.000660498
-0.000683167
-0.000705691
-0.000728053
-0.000750235
-0.000772221
-0.000793992
-0.000815531
-0.000836819
-0.000857839
-0.000878571
-0.000898997
-0.000919097
-0.000938853
-0.000958243
-0.000977249
-0.00099585
-0.00101402
-0.00103175
-0.00104901
)
;
    }
}


// ************************************************************************* //
