/*--------------------------------*- C++ -*----------------------------------*\
  =========                 |
  \\      /  F ield         | OpenFOAM: The Open Source CFD Toolbox
   \\    /   O peration     | Website:  https://openfoam.org
    \\  /    A nd           | Version:  9
     \\/     M anipulation  |
\*---------------------------------------------------------------------------*/
FoamFile
{
    format      ascii;
    class       volScalarField;
    location    "54000";
    object      gradTx;
}
// * * * * * * * * * * * * * * * * * * * * * * * * * * * * * * * * * * * * * //

dimensions      [0 -1 0 1 0 0 0];

internalField   nonuniform List<scalar> 
100
(
-499.051
-497.155
-495.26
-493.37
-491.486
-489.608
-487.74
-485.882
-484.036
-482.203
-480.386
-478.586
-476.804
-475.042
-473.301
-471.584
-469.891
-468.224
-466.585
-464.975
-463.396
-461.849
-460.335
-458.857
-457.415
-456.011
-454.647
-453.324
-452.042
-450.805
-449.612
-448.466
-447.367
-446.318
-445.319
-444.371
-443.476
-442.635
-441.849
-441.119
-440.447
-439.834
-439.28
-438.787
-438.357
-437.989
-437.685
-437.445
-437.272
-437.166
-437.127
-437.156
-437.255
-437.424
-437.664
-437.975
-438.358
-438.815
-439.344
-439.948
-440.627
-441.38
-442.209
-443.114
-444.095
-445.153
-446.287
-447.499
-448.788
-450.155
-451.599
-453.121
-454.721
-456.398
-458.153
-459.985
-461.894
-463.88
-465.943
-468.082
-470.297
-472.588
-474.953
-477.393
-479.907
-482.493
-485.152
-487.882
-490.683
-493.553
-496.492
-499.498
-502.571
-505.709
-508.911
-512.175
-515.501
-518.886
-522.33
-525.83
)
;

boundaryField
{
    left
    {
        type            calculated;
        value           uniform -500;
    }
    right
    {
        type            calculated;
        value           uniform -527.594;
    }
    frontAndBack
    {
        type            empty;
    }
    top_bottom
    {
        type            calculated;
        value           nonuniform List<scalar> 
200
(
-499.051
-497.155
-495.26
-493.37
-491.486
-489.608
-487.74
-485.882
-484.036
-482.203
-480.386
-478.586
-476.804
-475.042
-473.301
-471.584
-469.891
-468.224
-466.585
-464.975
-463.396
-461.849
-460.335
-458.857
-457.415
-456.011
-454.647
-453.324
-452.042
-450.805
-449.612
-448.466
-447.367
-446.318
-445.319
-444.371
-443.476
-442.635
-441.849
-441.119
-440.447
-439.834
-439.28
-438.787
-438.357
-437.989
-437.685
-437.445
-437.272
-437.166
-437.127
-437.156
-437.255
-437.424
-437.664
-437.975
-438.358
-438.815
-439.344
-439.948
-440.627
-441.38
-442.209
-443.114
-444.095
-445.153
-446.287
-447.499
-448.788
-450.155
-451.599
-453.121
-454.721
-456.398
-458.153
-459.985
-461.894
-463.88
-465.943
-468.082
-470.297
-472.588
-474.953
-477.393
-479.907
-482.493
-485.152
-487.882
-490.683
-493.553
-496.492
-499.498
-502.571
-505.709
-508.911
-512.175
-515.501
-518.886
-522.33
-525.83
-499.051
-497.155
-495.26
-493.37
-491.486
-489.608
-487.74
-485.882
-484.036
-482.203
-480.386
-478.586
-476.804
-475.042
-473.301
-471.584
-469.891
-468.224
-466.585
-464.975
-463.396
-461.849
-460.335
-458.857
-457.415
-456.011
-454.647
-453.324
-452.042
-450.805
-449.612
-448.466
-447.367
-446.318
-445.319
-444.371
-443.476
-442.635
-441.849
-441.119
-440.447
-439.834
-439.28
-438.787
-438.357
-437.989
-437.685
-437.445
-437.272
-437.166
-437.127
-437.156
-437.255
-437.424
-437.664
-437.975
-438.358
-438.815
-439.344
-439.948
-440.627
-441.38
-442.209
-443.114
-444.095
-445.153
-446.287
-447.499
-448.788
-450.155
-451.599
-453.121
-454.721
-456.398
-458.153
-459.985
-461.894
-463.88
-465.943
-468.082
-470.297
-472.588
-474.953
-477.393
-479.907
-482.493
-485.152
-487.882
-490.683
-493.553
-496.492
-499.498
-502.571
-505.709
-508.911
-512.175
-515.501
-518.886
-522.33
-525.83
)
;
    }
}


// ************************************************************************* //
