/*--------------------------------*- C++ -*----------------------------------*\
  =========                 |
  \\      /  F ield         | OpenFOAM: The Open Source CFD Toolbox
   \\    /   O peration     | Website:  https://openfoam.org
    \\  /    A nd           | Version:  9
     \\/     M anipulation  |
\*---------------------------------------------------------------------------*/
FoamFile
{
    format      ascii;
    class       volScalarField;
    location    "54000";
    object      T;
}
// * * * * * * * * * * * * * * * * * * * * * * * * * * * * * * * * * * * * * //

dimensions      [0 0 0 1 0 0 0];

internalField   nonuniform List<scalar> 
100
(
371.121
370.125
369.133
368.144
367.159
366.178
365.201
364.227
363.257
362.291
361.329
360.37
359.414
358.462
357.514
356.569
355.628
354.69
353.755
352.823
351.895
350.97
350.047
349.128
348.212
347.299
346.388
345.48
344.575
343.672
342.772
341.873
340.978
340.084
339.192
338.303
337.415
336.529
335.644
334.761
333.88
333
332.121
331.243
330.365
329.489
328.613
327.738
326.864
325.989
325.115
324.241
323.366
322.492
321.617
320.741
319.865
318.988
318.11
317.23
316.35
315.468
314.584
313.699
312.812
311.923
311.031
310.137
309.241
308.342
307.441
306.536
305.628
304.717
303.802
302.884
301.963
301.037
300.107
299.173
298.235
297.292
296.344
295.392
294.435
293.472
292.505
291.532
290.553
289.569
288.579
287.583
286.581
285.573
284.558
283.537
282.509
281.475
280.434
279.386
)
;

boundaryField
{
    left
    {
        type            fixedGradient;
        gradient        uniform 500;
    }
    right
    {
        type            uniformFixedValue;
        uniformValue    
        {
            type            sine;
            amplitude       
            {
                type            constant;
                value           20;
            }
            frequency       1.1574e-05;
            start           0;
            level           
            {
                type            constant;
                value           293;
            }
        }
        value           uniform 278.858;
    }
    frontAndBack
    {
        type            empty;
    }
    top_bottom
    {
        type            zeroGradient;
    }
}


// ************************************************************************* //
