/*--------------------------------*- C++ -*----------------------------------*\
  =========                 |
  \\      /  F ield         | OpenFOAM: The Open Source CFD Toolbox
   \\    /   O peration     | Website:  https://openfoam.org
    \\  /    A nd           | Version:  9
     \\/     M anipulation  |
\*---------------------------------------------------------------------------*/
FoamFile
{
    format      ascii;
    class       volScalarField;
    location    "54000";
    object      T_0;
}
// * * * * * * * * * * * * * * * * * * * * * * * * * * * * * * * * * * * * * //

dimensions      [0 0 0 1 0 0 0];

internalField   nonuniform List<scalar> 
100
(
370.92
369.924
368.932
367.943
366.959
365.979
365.003
364.03
363.062
362.097
361.136
360.179
359.226
358.276
357.33
356.388
355.449
354.514
353.582
352.653
351.728
350.807
349.888
348.973
348.06
347.151
346.245
345.341
344.44
343.542
342.646
341.753
340.863
339.974
339.088
338.204
337.321
336.441
335.563
334.686
333.81
332.936
332.063
331.192
330.321
329.452
328.583
327.715
326.847
325.98
325.113
324.246
323.379
322.511
321.644
320.776
319.907
319.038
318.167
317.296
316.423
315.549
314.674
313.797
312.917
312.036
311.153
310.268
309.379
308.489
307.595
306.699
305.799
304.896
303.99
303.08
302.166
301.249
300.327
299.401
298.471
297.536
296.596
295.652
294.703
293.748
292.788
291.822
290.851
289.875
288.892
287.903
286.908
285.907
284.899
283.884
282.863
281.835
280.8
279.758
)
;

boundaryField
{
    left
    {
        type            fixedGradient;
        gradient        uniform 500;
    }
    right
    {
        type            uniformFixedValue;
        uniformValue    
        {
            type            sine;
            amplitude       
            {
                type            constant;
                value           20;
            }
            frequency       1.1574e-05;
            start           0;
            level           
            {
                type            constant;
                value           293;
            }
        }
        value           uniform 279.233;
    }
    frontAndBack
    {
        type            empty;
    }
    top_bottom
    {
        type            zeroGradient;
    }
}


// ************************************************************************* //
