/*--------------------------------*- C++ -*----------------------------------*\
  =========                 |
  \\      /  F ield         | OpenFOAM: The Open Source CFD Toolbox
   \\    /   O peration     | Website:  https://openfoam.org
    \\  /    A nd           | Version:  9
     \\/     M anipulation  |
\*---------------------------------------------------------------------------*/
FoamFile
{
    format      ascii;
    class       volScalarField;
    location    "36000";
    object      ddt0(T);
}
// * * * * * * * * * * * * * * * * * * * * * * * * * * * * * * * * * * * * * //

dimensions      [0 0 -1 1 0 0 0];

internalField   nonuniform List<scalar> 
100
(
0.00222847
0.00222774
0.00222627
0.00222408
0.00222116
0.00221751
0.00221312
0.00220801
0.00220216
0.00219559
0.00218829
0.00218025
0.00217149
0.002162
0.00215178
0.00214084
0.00212917
0.00211677
0.00210364
0.00208979
0.00207521
0.00205992
0.00204389
0.00202715
0.00200968
0.00199149
0.00197258
0.00195295
0.00193261
0.00191154
0.00188976
0.00186727
0.00184406
0.00182014
0.0017955
0.00177016
0.0017441
0.00171734
0.00168988
0.00166171
0.00163283
0.00160326
0.00157298
0.00154201
0.00151034
0.00147798
0.00144492
0.00141118
0.00137675
0.00134163
0.00130583
0.00126935
0.00123219
0.00119436
0.00115585
0.00111667
0.00107682
0.00103631
0.000995143
0.000953313
0.000910829
0.000867693
0.00082391
0.000779482
0.000734413
0.000688707
0.000642369
0.000595402
0.000547811
0.0004996
0.000450774
0.000401337
0.000351294
0.00030065
0.00024941
0.00019758
0.000145166
9.21719e-05
3.86047e-05
-1.55298e-05
-7.02255e-05
-0.000125476
-0.000181274
-0.000237614
-0.000294488
-0.000351889
-0.00040981
-0.000468243
-0.00052718
-0.000586613
-0.000646534
-0.000706934
-0.000767804
-0.000829135
-0.000890918
-0.000953143
-0.0010158
-0.00107888
-0.00114237
-0.00120626
)
;

boundaryField
{
    left
    {
        type            calculated;
        value           uniform 0.00222847;
    }
    right
    {
        type            calculated;
        value           uniform -0.0012384;
    }
    frontAndBack
    {
        type            empty;
    }
    top_bottom
    {
        type            calculated;
        value           nonuniform List<scalar> 
200
(
0.00222847
0.00222774
0.00222627
0.00222408
0.00222116
0.00221751
0.00221312
0.00220801
0.00220216
0.00219559
0.00218829
0.00218025
0.00217149
0.002162
0.00215178
0.00214084
0.00212917
0.00211677
0.00210364
0.00208979
0.00207521
0.00205992
0.00204389
0.00202715
0.00200968
0.00199149
0.00197258
0.00195295
0.00193261
0.00191154
0.00188976
0.00186727
0.00184406
0.00182014
0.0017955
0.00177016
0.0017441
0.00171734
0.00168988
0.00166171
0.00163283
0.00160326
0.00157298
0.00154201
0.00151034
0.00147798
0.00144492
0.00141118
0.00137675
0.00134163
0.00130583
0.00126935
0.00123219
0.00119436
0.00115585
0.00111667
0.00107682
0.00103631
0.000995143
0.000953313
0.000910829
0.000867693
0.00082391
0.000779482
0.000734413
0.000688707
0.000642369
0.000595402
0.000547811
0.0004996
0.000450774
0.000401337
0.000351294
0.00030065
0.00024941
0.00019758
0.000145166
9.21719e-05
3.86047e-05
-1.55298e-05
-7.02255e-05
-0.000125476
-0.000181274
-0.000237614
-0.000294488
-0.000351889
-0.00040981
-0.000468243
-0.00052718
-0.000586613
-0.000646534
-0.000706934
-0.000767804
-0.000829135
-0.000890918
-0.000953143
-0.0010158
-0.00107888
-0.00114237
-0.00120626
0.00222847
0.00222774
0.00222627
0.00222408
0.00222116
0.00221751
0.00221312
0.00220801
0.00220216
0.00219559
0.00218829
0.00218025
0.00217149
0.002162
0.00215178
0.00214084
0.00212917
0.00211677
0.00210364
0.00208979
0.00207521
0.00205992
0.00204389
0.00202715
0.00200968
0.00199149
0.00197258
0.00195295
0.00193261
0.00191154
0.00188976
0.00186727
0.00184406
0.00182014
0.0017955
0.00177016
0.0017441
0.00171734
0.00168988
0.00166171
0.00163283
0.00160326
0.00157298
0.00154201
0.00151034
0.00147798
0.00144492
0.00141118
0.00137675
0.00134163
0.00130583
0.00126935
0.00123219
0.00119436
0.00115585
0.00111667
0.00107682
0.00103631
0.000995143
0.000953313
0.000910829
0.000867693
0.00082391
0.000779482
0.000734413
0.000688707
0.000642369
0.000595402
0.000547811
0.0004996
0.000450774
0.000401337
0.000351294
0.00030065
0.00024941
0.00019758
0.000145166
9.21719e-05
3.86047e-05
-1.55298e-05
-7.02255e-05
-0.000125476
-0.000181274
-0.000237614
-0.000294488
-0.000351889
-0.00040981
-0.000468243
-0.00052718
-0.000586613
-0.000646534
-0.000706934
-0.000767804
-0.000829135
-0.000890918
-0.000953143
-0.0010158
-0.00107888
-0.00114237
-0.00120626
)
;
    }
}


// ************************************************************************* //
