/*--------------------------------*- C++ -*----------------------------------*\
  =========                 |
  \\      /  F ield         | OpenFOAM: The Open Source CFD Toolbox
   \\    /   O peration     | Website:  https://openfoam.org
    \\  /    A nd           | Version:  9
     \\/     M anipulation  |
\*---------------------------------------------------------------------------*/
FoamFile
{
    format      ascii;
    class       volScalarField;
    location    "36000";
    object      gradTx;
}
// * * * * * * * * * * * * * * * * * * * * * * * * * * * * * * * * * * * * * //

dimensions      [0 -1 0 1 0 0 0];

internalField   nonuniform List<scalar> 
100
(
-496.224
-488.672
-481.124
-473.582
-466.049
-458.528
-451.02
-443.529
-436.056
-428.605
-421.178
-413.777
-406.405
-399.064
-391.757
-384.487
-377.255
-370.065
-362.919
-355.819
-348.769
-341.769
-334.823
-327.934
-321.104
-314.335
-307.629
-300.99
-294.42
-287.921
-281.496
-275.146
-268.876
-262.686
-256.58
-250.559
-244.627
-238.786
-233.038
-227.386
-221.832
-216.378
-211.027
-205.782
-200.644
-195.616
-190.7
-185.899
-181.216
-176.651
-172.209
-167.891
-163.699
-159.636
-155.705
-151.906
-148.244
-144.719
-141.335
-138.093
-134.996
-132.046
-129.245
-126.595
-124.099
-121.759
-119.577
-117.555
-115.695
-114
-112.471
-111.11
-109.92
-108.903
-108.06
-107.394
-106.907
-106.601
-106.477
-106.538
-106.785
-107.22
-107.846
-108.664
-109.676
-110.883
-112.288
-113.892
-115.697
-117.705
-119.916
-122.334
-124.959
-127.793
-130.838
-134.094
-137.564
-141.249
-145.15
-149.269
)
;

boundaryField
{
    left
    {
        type            calculated;
        value           uniform -500;
    }
    right
    {
        type            calculated;
        value           uniform -151.383;
    }
    frontAndBack
    {
        type            empty;
    }
    top_bottom
    {
        type            calculated;
        value           nonuniform List<scalar> 
200
(
-496.224
-488.672
-481.124
-473.582
-466.049
-458.528
-451.02
-443.529
-436.056
-428.605
-421.178
-413.777
-406.405
-399.064
-391.757
-384.487
-377.255
-370.065
-362.919
-355.819
-348.769
-341.769
-334.823
-327.934
-321.104
-314.335
-307.629
-300.99
-294.42
-287.921
-281.496
-275.146
-268.876
-262.686
-256.58
-250.559
-244.627
-238.786
-233.038
-227.386
-221.832
-216.378
-211.027
-205.782
-200.644
-195.616
-190.7
-185.899
-181.216
-176.651
-172.209
-167.891
-163.699
-159.636
-155.705
-151.906
-148.244
-144.719
-141.335
-138.093
-134.996
-132.046
-129.245
-126.595
-124.099
-121.759
-119.577
-117.555
-115.695
-114
-112.471
-111.11
-109.92
-108.903
-108.06
-107.394
-106.907
-106.601
-106.477
-106.538
-106.785
-107.22
-107.846
-108.664
-109.676
-110.883
-112.288
-113.892
-115.697
-117.705
-119.916
-122.334
-124.959
-127.793
-130.838
-134.094
-137.564
-141.249
-145.15
-149.269
-496.224
-488.672
-481.124
-473.582
-466.049
-458.528
-451.02
-443.529
-436.056
-428.605
-421.178
-413.777
-406.405
-399.064
-391.757
-384.487
-377.255
-370.065
-362.919
-355.819
-348.769
-341.769
-334.823
-327.934
-321.104
-314.335
-307.629
-300.99
-294.42
-287.921
-281.496
-275.146
-268.876
-262.686
-256.58
-250.559
-244.627
-238.786
-233.038
-227.386
-221.832
-216.378
-211.027
-205.782
-200.644
-195.616
-190.7
-185.899
-181.216
-176.651
-172.209
-167.891
-163.699
-159.636
-155.705
-151.906
-148.244
-144.719
-141.335
-138.093
-134.996
-132.046
-129.245
-126.595
-124.099
-121.759
-119.577
-117.555
-115.695
-114
-112.471
-111.11
-109.92
-108.903
-108.06
-107.394
-106.907
-106.601
-106.477
-106.538
-106.785
-107.22
-107.846
-108.664
-109.676
-110.883
-112.288
-113.892
-115.697
-117.705
-119.916
-122.334
-124.959
-127.793
-130.838
-134.094
-137.564
-141.249
-145.15
-149.269
)
;
    }
}


// ************************************************************************* //
