/*--------------------------------*- C++ -*----------------------------------*\
  =========                 |
  \\      /  F ield         | OpenFOAM: The Open Source CFD Toolbox
   \\    /   O peration     | Website:  https://openfoam.org
    \\  /    A nd           | Version:  9
     \\/     M anipulation  |
\*---------------------------------------------------------------------------*/
FoamFile
{
    format      ascii;
    class       volScalarField;
    location    "36000";
    object      T;
}
// * * * * * * * * * * * * * * * * * * * * * * * * * * * * * * * * * * * * * //

dimensions      [0 0 0 1 0 0 0];

internalField   nonuniform List<scalar> 
100
(
347.536
346.551
345.581
344.627
343.687
342.763
341.853
340.959
340.079
339.214
338.365
337.53
336.709
335.904
335.113
334.337
333.575
332.828
332.095
331.376
330.672
329.981
329.305
328.642
327.993
327.357
326.736
326.127
325.532
324.949
324.38
323.823
323.279
322.748
322.229
321.721
321.226
320.743
320.271
319.811
319.362
318.923
318.496
318.079
317.673
317.277
316.891
316.514
316.147
315.789
315.44
315.1
314.769
314.445
314.13
313.823
313.523
313.23
312.944
312.664
312.391
312.124
311.863
311.607
311.357
311.111
310.87
310.633
310.4
310.17
309.944
309.72
309.499
309.28
309.063
308.848
308.634
308.42
308.207
307.995
307.781
307.567
307.352
307.136
306.918
306.697
306.474
306.248
306.019
305.785
305.548
305.306
305.059
304.806
304.547
304.283
304.011
303.732
303.446
303.152
)
;

boundaryField
{
    left
    {
        type            fixedGradient;
        gradient        uniform 500;
    }
    right
    {
        type            uniformFixedValue;
        uniformValue    
        {
            type            sine;
            amplitude       
            {
                type            constant;
                value           20;
            }
            frequency       1.1574e-05;
            start           0;
            level           
            {
                type            constant;
                value           293;
            }
        }
        value           uniform 303;
    }
    frontAndBack
    {
        type            empty;
    }
    top_bottom
    {
        type            zeroGradient;
    }
}


// ************************************************************************* //
