/*--------------------------------*- C++ -*----------------------------------*\
  =========                 |
  \\      /  F ield         | OpenFOAM: The Open Source CFD Toolbox
   \\    /   O peration     | Website:  https://openfoam.org
    \\  /    A nd           | Version:  9
     \\/     M anipulation  |
\*---------------------------------------------------------------------------*/
FoamFile
{
    format      ascii;
    class       volScalarField;
    location    "36000";
    object      T_0;
}
// * * * * * * * * * * * * * * * * * * * * * * * * * * * * * * * * * * * * * //

dimensions      [0 0 0 1 0 0 0];

internalField   nonuniform List<scalar> 
100
(
346.742
345.757
344.788
343.834
342.896
341.972
341.064
340.172
339.294
338.432
337.585
336.753
335.936
335.134
334.347
333.574
332.817
332.074
331.346
330.632
329.933
329.248
328.577
327.92
327.277
326.648
326.033
325.432
324.844
324.269
323.707
323.159
322.623
322.1
321.59
321.092
320.606
320.132
319.671
319.22
318.782
318.354
317.938
317.532
317.137
316.752
316.378
316.014
315.659
315.314
314.978
314.651
314.333
314.023
313.721
313.428
313.142
312.864
312.593
312.328
312.071
311.819
311.574
311.334
311.099
310.87
310.645
310.425
310.209
309.997
309.788
309.582
309.379
309.179
308.98
308.783
308.588
308.394
308.2
308.006
307.813
307.619
307.424
307.227
307.03
306.83
306.627
306.422
306.214
306.002
305.786
305.565
305.34
305.109
304.873
304.63
304.381
304.125
303.862
303.59
)
;

boundaryField
{
    left
    {
        type            fixedGradient;
        gradient        uniform 500;
    }
    right
    {
        type            uniformFixedValue;
        uniformValue    
        {
            type            sine;
            amplitude       
            {
                type            constant;
                value           20;
            }
            frequency       1.1574e-05;
            start           0;
            level           
            {
                type            constant;
                value           293;
            }
        }
        value           uniform 303.45;
    }
    frontAndBack
    {
        type            empty;
    }
    top_bottom
    {
        type            zeroGradient;
    }
}


// ************************************************************************* //
