/*--------------------------------*- C++ -*----------------------------------*\
  =========                 |
  \\      /  F ield         | OpenFOAM: The Open Source CFD Toolbox
   \\    /   O peration     | Website:  https://openfoam.org
    \\  /    A nd           | Version:  9
     \\/     M anipulation  |
\*---------------------------------------------------------------------------*/
FoamFile
{
    format      ascii;
    class       volScalarField;
    location    "3600";
    object      ddt0(T);
}
// * * * * * * * * * * * * * * * * * * * * * * * * * * * * * * * * * * * * * //

dimensions      [0 0 -1 1 0 0 0];

internalField   nonuniform List<scalar> 
100
(
0.00424733
0.00418766
0.00417229
0.00417273
0.00417579
0.0041763
0.004173
0.00416632
0.00415719
0.00414657
0.00413526
0.00412384
0.00411271
0.00410217
0.00409246
0.00408379
0.00407637
0.00407041
0.00406616
0.0040639
0.00406389
0.00406644
0.00407185
0.0040804
0.00409241
0.00410815
0.0041279
0.00415192
0.00418045
0.00421371
0.0042519
0.00429519
0.00434372
0.00439762
0.00445697
0.00452182
0.00459219
0.00466808
0.00474942
0.00483611
0.00492804
0.00502502
0.00512682
0.0052332
0.00534384
0.0054584
0.00557647
0.00569762
0.00582136
0.00594717
0.00607449
0.00620271
0.00633118
0.00645923
0.00658616
0.00671122
0.00683365
0.00695269
0.00706752
0.00717736
0.00728138
0.00737878
0.00746875
0.0075505
0.00762323
0.00768617
0.00773858
0.00777969
0.00780881
0.00782521
0.00782821
0.00781713
0.00779134
0.0077502
0.00769315
0.00761969
0.00752943
0.00742213
0.00729779
0.00715667
0.00699939
0.00682697
0.00664086
0.00644278
0.00623461
0.00601793
0.00579337
0.00555971
0.00531265
0.00504356
0.00473848
0.00437844
0.00394268
0.00341789
0.0028187
0.00222813
0.00187189
0.0022488
0.00435159
0.0100311
)
;

boundaryField
{
    left
    {
        type            calculated;
        value           uniform 0.00424733;
    }
    right
    {
        type            calculated;
        value           uniform 0.00133128;
    }
    frontAndBack
    {
        type            empty;
    }
    top_bottom
    {
        type            calculated;
        value           nonuniform List<scalar> 
200
(
0.00424733
0.00418766
0.00417229
0.00417273
0.00417579
0.0041763
0.004173
0.00416632
0.00415719
0.00414657
0.00413526
0.00412384
0.00411271
0.00410217
0.00409246
0.00408379
0.00407637
0.00407041
0.00406616
0.0040639
0.00406389
0.00406644
0.00407185
0.0040804
0.00409241
0.00410815
0.0041279
0.00415192
0.00418045
0.00421371
0.0042519
0.00429519
0.00434372
0.00439762
0.00445697
0.00452182
0.00459219
0.00466808
0.00474942
0.00483611
0.00492804
0.00502502
0.00512682
0.0052332
0.00534384
0.0054584
0.00557647
0.00569762
0.00582136
0.00594717
0.00607449
0.00620271
0.00633118
0.00645923
0.00658616
0.00671122
0.00683365
0.00695269
0.00706752
0.00717736
0.00728138
0.00737878
0.00746875
0.0075505
0.00762323
0.00768617
0.00773858
0.00777969
0.00780881
0.00782521
0.00782821
0.00781713
0.00779134
0.0077502
0.00769315
0.00761969
0.00752943
0.00742213
0.00729779
0.00715667
0.00699939
0.00682697
0.00664086
0.00644278
0.00623461
0.00601793
0.00579337
0.00555971
0.00531265
0.00504356
0.00473848
0.00437844
0.00394268
0.00341789
0.0028187
0.00222813
0.00187189
0.0022488
0.00435159
0.0100311
0.00424733
0.00418766
0.00417229
0.00417273
0.00417579
0.0041763
0.004173
0.00416632
0.00415719
0.00414657
0.00413526
0.00412384
0.00411271
0.00410217
0.00409246
0.00408379
0.00407637
0.00407041
0.00406616
0.0040639
0.00406389
0.00406644
0.00407185
0.0040804
0.00409241
0.00410815
0.0041279
0.00415192
0.00418045
0.00421371
0.0042519
0.00429519
0.00434372
0.00439762
0.00445697
0.00452182
0.00459219
0.00466808
0.00474942
0.00483611
0.00492804
0.00502502
0.00512682
0.0052332
0.00534384
0.0054584
0.00557647
0.00569762
0.00582136
0.00594717
0.00607449
0.00620271
0.00633118
0.00645923
0.00658616
0.00671122
0.00683365
0.00695269
0.00706752
0.00717736
0.00728138
0.00737878
0.00746875
0.0075505
0.00762323
0.00768617
0.00773858
0.00777969
0.00780881
0.00782521
0.00782821
0.00781713
0.00779134
0.0077502
0.00769315
0.00761969
0.00752943
0.00742213
0.00729779
0.00715667
0.00699939
0.00682697
0.00664086
0.00644278
0.00623461
0.00601793
0.00579337
0.00555971
0.00531265
0.00504356
0.00473848
0.00437844
0.00394268
0.00341789
0.0028187
0.00222813
0.00187189
0.0022488
0.00435159
0.0100311
)
;
    }
}


// ************************************************************************* //
