/*--------------------------------*- C++ -*----------------------------------*\
  =========                 |
  \\      /  F ield         | OpenFOAM: The Open Source CFD Toolbox
   \\    /   O peration     | Website:  https://openfoam.org
    \\  /    A nd           | Version:  9
     \\/     M anipulation  |
\*---------------------------------------------------------------------------*/
FoamFile
{
    format      ascii;
    class       volScalarField;
    location    "3600";
    object      gradTx;
}
// * * * * * * * * * * * * * * * * * * * * * * * * * * * * * * * * * * * * * //

dimensions      [0 -1 0 1 0 0 0];

internalField   nonuniform List<scalar> 
100
(
-492.885
-478.588
-464.217
-449.843
-435.49
-421.159
-406.846
-392.543
-378.246
-363.953
-349.661
-335.369
-321.075
-306.778
-292.475
-278.163
-263.837
-249.492
-235.122
-220.721
-206.281
-191.795
-177.252
-162.645
-147.963
-133.196
-118.332
-103.359
-88.2663
-73.0406
-57.6691
-42.1387
-26.4361
-10.5477
5.54012
21.8408
38.3677
55.1341
72.1527
89.436
106.996
124.843
142.989
161.443
180.213
199.306
218.73
238.49
258.588
279.027
299.807
320.928
342.386
364.177
386.294
408.728
431.469
454.504
477.818
501.395
525.215
549.258
573.5
597.915
622.478
647.157
671.922
696.74
721.575
746.391
771.15
795.812
820.336
844.682
868.808
892.669
916.225
939.433
962.249
984.632
1006.54
1027.92
1048.74
1068.95
1088.5
1107.32
1125.38
1142.62
1158.98
1174.43
1188.96
1202.61
1215.47
1227.68
1239.43
1250.84
1261.68
1270.93
1275.69
1269.33
)
;

boundaryField
{
    left
    {
        type            calculated;
        value           uniform -500;
    }
    right
    {
        type            calculated;
        value           uniform 1262.23;
    }
    frontAndBack
    {
        type            empty;
    }
    top_bottom
    {
        type            calculated;
        value           nonuniform List<scalar> 
200
(
-492.885
-478.588
-464.217
-449.843
-435.49
-421.159
-406.846
-392.543
-378.246
-363.953
-349.661
-335.369
-321.075
-306.778
-292.475
-278.163
-263.837
-249.492
-235.122
-220.721
-206.281
-191.795
-177.252
-162.645
-147.963
-133.196
-118.332
-103.359
-88.2663
-73.0406
-57.6691
-42.1387
-26.4361
-10.5477
5.54012
21.8408
38.3677
55.1341
72.1527
89.436
106.996
124.843
142.989
161.443
180.213
199.306
218.73
238.49
258.588
279.027
299.807
320.928
342.386
364.177
386.294
408.728
431.469
454.504
477.818
501.395
525.215
549.258
573.5
597.915
622.478
647.157
671.922
696.74
721.575
746.391
771.15
795.812
820.336
844.682
868.808
892.669
916.225
939.433
962.249
984.632
1006.54
1027.92
1048.74
1068.95
1088.5
1107.32
1125.38
1142.62
1158.98
1174.43
1188.96
1202.61
1215.47
1227.68
1239.43
1250.84
1261.68
1270.93
1275.69
1269.33
-492.885
-478.588
-464.217
-449.843
-435.49
-421.159
-406.846
-392.543
-378.246
-363.953
-349.661
-335.369
-321.075
-306.778
-292.475
-278.163
-263.837
-249.492
-235.122
-220.721
-206.281
-191.795
-177.252
-162.645
-147.963
-133.196
-118.332
-103.359
-88.2663
-73.0406
-57.6691
-42.1387
-26.4361
-10.5477
5.54012
21.8408
38.3677
55.1341
72.1527
89.436
106.996
124.843
142.989
161.443
180.213
199.306
218.73
238.49
258.588
279.027
299.807
320.928
342.386
364.177
386.294
408.728
431.469
454.504
477.818
501.395
525.215
549.258
573.5
597.915
622.478
647.157
671.922
696.74
721.575
746.391
771.15
795.812
820.336
844.682
868.808
892.669
916.225
939.433
962.249
984.632
1006.54
1027.92
1048.74
1068.95
1088.5
1107.32
1125.38
1142.62
1158.98
1174.43
1188.96
1202.61
1215.47
1227.68
1239.43
1250.84
1261.68
1270.93
1275.69
1269.33
)
;
    }
}


// ************************************************************************* //
