/*--------------------------------*- C++ -*----------------------------------*\
  =========                 |
  \\      /  F ield         | OpenFOAM: The Open Source CFD Toolbox
   \\    /   O peration     | Website:  https://openfoam.org
    \\  /    A nd           | Version:  9
     \\/     M anipulation  |
\*---------------------------------------------------------------------------*/
FoamFile
{
    format      ascii;
    class       volScalarField;
    location    "3600";
    object      T;
}
// * * * * * * * * * * * * * * * * * * * * * * * * * * * * * * * * * * * * * //

dimensions      [0 0 0 1 0 0 0];

internalField   nonuniform List<scalar> 
100
(
225.666
224.694
223.751
222.837
221.952
221.095
220.267
219.468
218.697
217.955
217.241
216.556
215.9
215.272
214.673
214.102
213.56
213.047
212.562
212.106
211.679
211.281
210.912
210.572
210.261
209.98
209.729
209.507
209.315
209.154
209.023
208.923
208.855
208.817
208.812
208.84
208.9
208.993
209.12
209.282
209.478
209.71
209.977
210.282
210.623
211.002
211.42
211.877
212.374
212.912
213.49
214.111
214.774
215.481
216.231
217.026
217.866
218.752
219.684
220.663
221.689
222.764
223.886
225.058
226.278
227.548
228.867
230.235
231.654
233.122
234.639
236.206
237.822
239.488
241.201
242.963
244.772
246.628
248.53
250.477
252.468
254.503
256.58
258.698
260.856
263.052
265.285
267.553
269.855
272.189
274.553
276.945
279.363
281.807
284.274
286.765
289.278
291.811
294.361
296.914
)
;

boundaryField
{
    left
    {
        type            fixedGradient;
        gradient        uniform 500;
    }
    right
    {
        type            uniformFixedValue;
        uniformValue    
        {
            type            sine;
            amplitude       
            {
                type            constant;
                value           20;
            }
            frequency       1.1574e-05;
            start           0;
            level           
            {
                type            constant;
                value           293;
            }
        }
        value           uniform 298.176;
    }
    frontAndBack
    {
        type            empty;
    }
    top_bottom
    {
        type            zeroGradient;
    }
}


// ************************************************************************* //
