/*--------------------------------*- C++ -*----------------------------------*\
  =========                 |
  \\      /  F ield         | OpenFOAM: The Open Source CFD Toolbox
   \\    /   O peration     | Website:  https://openfoam.org
    \\  /    A nd           | Version:  9
     \\/     M anipulation  |
\*---------------------------------------------------------------------------*/
FoamFile
{
    format      ascii;
    class       volScalarField;
    location    "3600";
    object      T_0;
}
// * * * * * * * * * * * * * * * * * * * * * * * * * * * * * * * * * * * * * //

dimensions      [0 0 0 1 0 0 0];

internalField   nonuniform List<scalar> 
100
(
224.162
223.191
222.25
221.336
220.452
219.597
218.77
217.972
217.203
216.463
215.751
215.067
214.412
213.786
213.187
212.617
212.076
211.562
211.076
210.618
210.189
209.787
209.414
209.068
208.751
208.462
208.201
207.968
207.765
207.59
207.444
207.328
207.241
207.184
207.157
207.161
207.197
207.264
207.363
207.495
207.66
207.86
208.094
208.363
208.668
209.011
209.391
209.809
210.267
210.764
211.303
211.884
212.508
213.175
213.886
214.644
215.447
216.297
217.196
218.143
219.14
220.187
221.285
222.434
223.636
224.889
226.197
227.557
228.971
230.439
231.961
233.536
235.166
236.85
238.587
240.377
242.219
244.114
246.059
248.055
250.101
252.194
254.335
256.521
258.752
261.026
263.342
265.697
268.091
270.521
272.986
275.484
278.012
280.567
283.146
285.744
288.358
290.984
293.626
296.298
)
;

boundaryField
{
    left
    {
        type            fixedGradient;
        gradient        uniform 500;
    }
    right
    {
        type            uniformFixedValue;
        uniformValue    
        {
            type            sine;
            amplitude       
            {
                type            constant;
                value           20;
            }
            frequency       1.1574e-05;
            start           0;
            level           
            {
                type            constant;
                value           293;
            }
        }
        value           uniform 297.669;
    }
    frontAndBack
    {
        type            empty;
    }
    top_bottom
    {
        type            zeroGradient;
    }
}


// ************************************************************************* //
