/*--------------------------------*- C++ -*----------------------------------*\
  =========                 |
  \\      /  F ield         | OpenFOAM: The Open Source CFD Toolbox
   \\    /   O peration     | Website:  https://openfoam.org
    \\  /    A nd           | Version:  9
     \\/     M anipulation  |
\*---------------------------------------------------------------------------*/
FoamFile
{
    format      ascii;
    class       volScalarField;
    location    "7200";
    object      ddt0(T);
}
// * * * * * * * * * * * * * * * * * * * * * * * * * * * * * * * * * * * * * //

dimensions      [0 0 -1 1 0 0 0];

internalField   nonuniform List<scalar> 
100
(
0.00461198
0.00461195
0.00461385
0.00461678
0.00462053
0.00462508
0.00463046
0.00463668
0.00464375
0.00465165
0.00466035
0.00466983
0.00468004
0.00469097
0.00470257
0.0047148
0.00472763
0.00474101
0.00475489
0.00476923
0.00478398
0.00479908
0.00481447
0.0048301
0.0048459
0.00486181
0.00487776
0.00489368
0.00490949
0.00492512
0.00494049
0.00495553
0.00497015
0.00498426
0.00499778
0.00501062
0.00502269
0.0050339
0.00504416
0.00505337
0.00506144
0.00506828
0.00507378
0.00507786
0.00508041
0.00508134
0.00508056
0.00507797
0.00507347
0.00506698
0.00505841
0.00504766
0.00503465
0.0050193
0.00500153
0.00498125
0.00495839
0.00493288
0.00490466
0.00487366
0.00483983
0.0048031
0.00476343
0.00472079
0.00467512
0.0046264
0.0045746
0.0045197
0.00446168
0.00440055
0.00433629
0.00426891
0.00419843
0.00412486
0.00404824
0.00396859
0.00388595
0.00380037
0.00371191
0.00362063
0.00352657
0.00342982
0.00333044
0.0032285
0.00312409
0.0030173
0.00290827
0.00279714
0.00268412
0.00256944
0.00245332
0.00233586
0.00221685
0.00209561
0.00197078
0.00184079
0.00170594
0.00157459
0.00147877
0.00150948
)
;

boundaryField
{
    left
    {
        type            calculated;
        value           uniform 0.00461198;
    }
    right
    {
        type            calculated;
        value           uniform 0.00127748;
    }
    frontAndBack
    {
        type            empty;
    }
    top_bottom
    {
        type            calculated;
        value           nonuniform List<scalar> 
200
(
0.00461198
0.00461195
0.00461385
0.00461678
0.00462053
0.00462508
0.00463046
0.00463668
0.00464375
0.00465165
0.00466035
0.00466983
0.00468004
0.00469097
0.00470257
0.0047148
0.00472763
0.00474101
0.00475489
0.00476923
0.00478398
0.00479908
0.00481447
0.0048301
0.0048459
0.00486181
0.00487776
0.00489368
0.00490949
0.00492512
0.00494049
0.00495553
0.00497015
0.00498426
0.00499778
0.00501062
0.00502269
0.0050339
0.00504416
0.00505337
0.00506144
0.00506828
0.00507378
0.00507786
0.00508041
0.00508134
0.00508056
0.00507797
0.00507347
0.00506698
0.00505841
0.00504766
0.00503465
0.0050193
0.00500153
0.00498125
0.00495839
0.00493288
0.00490466
0.00487366
0.00483983
0.0048031
0.00476343
0.00472079
0.00467512
0.0046264
0.0045746
0.0045197
0.00446168
0.00440055
0.00433629
0.00426891
0.00419843
0.00412486
0.00404824
0.00396859
0.00388595
0.00380037
0.00371191
0.00362063
0.00352657
0.00342982
0.00333044
0.0032285
0.00312409
0.0030173
0.00290827
0.00279714
0.00268412
0.00256944
0.00245332
0.00233586
0.00221685
0.00209561
0.00197078
0.00184079
0.00170594
0.00157459
0.00147877
0.00150948
0.00461198
0.00461195
0.00461385
0.00461678
0.00462053
0.00462508
0.00463046
0.00463668
0.00464375
0.00465165
0.00466035
0.00466983
0.00468004
0.00469097
0.00470257
0.0047148
0.00472763
0.00474101
0.00475489
0.00476923
0.00478398
0.00479908
0.00481447
0.0048301
0.0048459
0.00486181
0.00487776
0.00489368
0.00490949
0.00492512
0.00494049
0.00495553
0.00497015
0.00498426
0.00499778
0.00501062
0.00502269
0.0050339
0.00504416
0.00505337
0.00506144
0.00506828
0.00507378
0.00507786
0.00508041
0.00508134
0.00508056
0.00507797
0.00507347
0.00506698
0.00505841
0.00504766
0.00503465
0.0050193
0.00500153
0.00498125
0.00495839
0.00493288
0.00490466
0.00487366
0.00483983
0.0048031
0.00476343
0.00472079
0.00467512
0.0046264
0.0045746
0.0045197
0.00446168
0.00440055
0.00433629
0.00426891
0.00419843
0.00412486
0.00404824
0.00396859
0.00388595
0.00380037
0.00371191
0.00362063
0.00352657
0.00342982
0.00333044
0.0032285
0.00312409
0.0030173
0.00290827
0.00279714
0.00268412
0.00256944
0.00245332
0.00233586
0.00221685
0.00209561
0.00197078
0.00184079
0.00170594
0.00157459
0.00147877
0.00150948
)
;
    }
}


// ************************************************************************* //
