/*--------------------------------*- C++ -*----------------------------------*\
  =========                 |
  \\      /  F ield         | OpenFOAM: The Open Source CFD Toolbox
   \\    /   O peration     | Website:  https://openfoam.org
    \\  /    A nd           | Version:  9
     \\/     M anipulation  |
\*---------------------------------------------------------------------------*/
FoamFile
{
    format      ascii;
    class       volScalarField;
    location    "7200";
    object      gradTx;
}
// * * * * * * * * * * * * * * * * * * * * * * * * * * * * * * * * * * * * * //

dimensions      [0 -1 0 1 0 0 0];

internalField   nonuniform List<scalar> 
100
(
-491.975
-475.923
-459.865
-443.802
-427.729
-411.645
-395.546
-379.43
-363.295
-347.138
-330.957
-314.749
-298.514
-282.247
-265.949
-249.616
-233.247
-216.842
-200.397
-183.913
-167.388
-150.822
-134.213
-117.562
-100.867
-84.1296
-67.3493
-50.5265
-33.6619
-16.7563
0.18905
17.1729
34.1935
51.2491
68.3374
85.456
102.602
119.773
136.965
154.175
171.398
188.632
205.87
223.109
240.344
257.568
274.778
291.965
309.126
326.252
343.338
360.376
377.36
394.281
411.132
427.905
444.592
461.184
477.674
494.052
510.309
526.436
542.425
558.265
573.948
589.464
604.803
619.955
634.912
649.663
664.198
678.509
692.584
706.416
719.994
733.308
746.351
759.112
771.582
783.753
795.616
807.163
818.385
829.276
839.826
850.03
859.879
869.368
878.489
887.237
895.605
903.587
911.177
918.371
925.17
931.575
937.594
943.226
948.423
952.986
)
;

boundaryField
{
    left
    {
        type            calculated;
        value           uniform -500;
    }
    right
    {
        type            calculated;
        value           uniform 955.07;
    }
    frontAndBack
    {
        type            empty;
    }
    top_bottom
    {
        type            calculated;
        value           nonuniform List<scalar> 
200
(
-491.975
-475.923
-459.865
-443.802
-427.729
-411.645
-395.546
-379.43
-363.295
-347.138
-330.957
-314.749
-298.514
-282.247
-265.949
-249.616
-233.247
-216.842
-200.397
-183.913
-167.388
-150.822
-134.213
-117.562
-100.867
-84.1296
-67.3493
-50.5265
-33.6619
-16.7563
0.18905
17.1729
34.1935
51.2491
68.3374
85.456
102.602
119.773
136.965
154.175
171.398
188.632
205.87
223.109
240.344
257.568
274.778
291.965
309.126
326.252
343.338
360.376
377.36
394.281
411.132
427.905
444.592
461.184
477.674
494.052
510.309
526.436
542.425
558.265
573.948
589.464
604.803
619.955
634.912
649.663
664.198
678.509
692.584
706.416
719.994
733.308
746.351
759.112
771.582
783.753
795.616
807.163
818.385
829.276
839.826
850.03
859.879
869.368
878.489
887.237
895.605
903.587
911.177
918.371
925.17
931.575
937.594
943.226
948.423
952.986
-491.975
-475.923
-459.865
-443.802
-427.729
-411.645
-395.546
-379.43
-363.295
-347.138
-330.957
-314.749
-298.514
-282.247
-265.949
-249.616
-233.247
-216.842
-200.397
-183.913
-167.388
-150.822
-134.213
-117.562
-100.867
-84.1296
-67.3493
-50.5265
-33.6619
-16.7563
0.18905
17.1729
34.1935
51.2491
68.3374
85.456
102.602
119.773
136.965
154.175
171.398
188.632
205.87
223.109
240.344
257.568
274.778
291.965
309.126
326.252
343.338
360.376
377.36
394.281
411.132
427.905
444.592
461.184
477.674
494.052
510.309
526.436
542.425
558.265
573.948
589.464
604.803
619.955
634.912
649.663
664.198
678.509
692.584
706.416
719.994
733.308
746.351
759.112
771.582
783.753
795.616
807.163
818.385
829.276
839.826
850.03
859.879
869.368
878.489
887.237
895.605
903.587
911.177
918.371
925.17
931.575
937.594
943.226
948.423
952.986
)
;
    }
}


// ************************************************************************* //
