/*--------------------------------*- C++ -*----------------------------------*\
  =========                 |
  \\      /  F ield         | OpenFOAM: The Open Source CFD Toolbox
   \\    /   O peration     | Website:  https://openfoam.org
    \\  /    A nd           | Version:  9
     \\/     M anipulation  |
\*---------------------------------------------------------------------------*/
FoamFile
{
    format      ascii;
    class       volScalarField;
    location    "7200";
    object      T;
}
// * * * * * * * * * * * * * * * * * * * * * * * * * * * * * * * * * * * * * //

dimensions      [0 0 0 1 0 0 0];

internalField   nonuniform List<scalar> 
100
(
241.452
240.484
239.548
238.645
237.773
236.934
236.127
235.352
234.609
233.898
233.22
232.575
231.961
231.38
230.832
230.317
229.834
229.384
228.966
228.582
228.231
227.913
227.628
227.376
227.157
226.972
226.821
226.703
226.619
226.568
226.552
226.569
226.62
226.706
226.825
226.979
227.167
227.389
227.646
227.937
228.263
228.623
229.017
229.446
229.91
230.408
230.94
231.507
232.108
232.743
233.413
234.117
234.855
235.626
236.432
237.271
238.143
239.049
239.988
240.96
241.964
243.001
244.07
245.171
246.303
247.467
248.661
249.886
251.141
252.425
253.739
255.082
256.453
257.853
259.279
260.732
262.212
263.718
265.249
266.804
268.384
269.987
271.612
273.26
274.929
276.62
278.33
280.059
281.807
283.573
285.356
287.155
288.97
290.8
292.644
294.501
296.37
298.251
300.143
302.045
)
;

boundaryField
{
    left
    {
        type            fixedGradient;
        gradient        uniform 500;
    }
    right
    {
        type            uniformFixedValue;
        uniformValue    
        {
            type            sine;
            amplitude       
            {
                type            constant;
                value           20;
            }
            frequency       1.1574e-05;
            start           0;
            level           
            {
                type            constant;
                value           293;
            }
        }
        value           uniform 303;
    }
    frontAndBack
    {
        type            empty;
    }
    top_bottom
    {
        type            zeroGradient;
    }
}


// ************************************************************************* //
