/*--------------------------------*- C++ -*----------------------------------*\
  =========                 |
  \\      /  F ield         | OpenFOAM: The Open Source CFD Toolbox
   \\    /   O peration     | Website:  https://openfoam.org
    \\  /    A nd           | Version:  9
     \\/     M anipulation  |
\*---------------------------------------------------------------------------*/
FoamFile
{
    format      ascii;
    class       volScalarField;
    location    "7200";
    object      T_0;
}
// * * * * * * * * * * * * * * * * * * * * * * * * * * * * * * * * * * * * * //

dimensions      [0 0 0 1 0 0 0];

internalField   nonuniform List<scalar> 
100
(
239.783
238.815
237.878
236.974
236.101
235.26
234.451
233.674
232.929
232.216
231.535
230.886
230.27
229.685
229.133
228.614
228.127
227.672
227.251
226.862
226.506
226.183
225.893
225.636
225.412
225.222
225.066
224.943
224.854
224.799
224.777
224.79
224.837
224.918
225.034
225.184
225.369
225.588
225.842
226.131
226.455
226.813
227.207
227.635
228.099
228.597
229.131
229.699
230.303
230.942
231.615
232.324
233.067
233.845
234.658
235.505
236.386
237.302
238.252
239.235
240.252
241.303
242.386
243.503
244.652
245.833
247.046
248.291
249.567
250.874
252.211
253.578
254.974
256.399
257.853
259.335
260.844
262.38
263.942
265.529
267.142
268.779
270.44
272.123
273.829
275.556
277.305
279.073
280.86
282.666
284.49
286.331
288.188
290.06
291.946
293.847
295.759
297.684
299.619
301.565
)
;

boundaryField
{
    left
    {
        type            fixedGradient;
        gradient        uniform 500;
    }
    right
    {
        type            uniformFixedValue;
        uniformValue    
        {
            type            sine;
            amplitude       
            {
                type            constant;
                value           20;
            }
            frequency       1.1574e-05;
            start           0;
            level           
            {
                type            constant;
                value           293;
            }
        }
        value           uniform 302.543;
    }
    frontAndBack
    {
        type            empty;
    }
    top_bottom
    {
        type            zeroGradient;
    }
}


// ************************************************************************* //
