/*--------------------------------*- C++ -*----------------------------------*\
  =========                 |
  \\      /  F ield         | OpenFOAM: The Open Source CFD Toolbox
   \\    /   O peration     | Website:  https://openfoam.org
    \\  /    A nd           | Version:  9
     \\/     M anipulation  |
\*---------------------------------------------------------------------------*/
FoamFile
{
    format      ascii;
    class       volScalarField;
    location    "126000";
    object      ddt0(T);
}
// * * * * * * * * * * * * * * * * * * * * * * * * * * * * * * * * * * * * * //

dimensions      [0 0 -1 1 0 0 0];

internalField   nonuniform List<scalar> 
100
(
0.000261192
0.000260875
0.000260242
0.000259293
0.000258027
0.000256444
0.000254545
0.000252327
0.000249793
0.00024694
0.000243769
0.00024028
0.000236471
0.000232343
0.000227895
0.000223125
0.000218035
0.000212623
0.000206887
0.000200829
0.000194447
0.000187739
0.000180707
0.000173347
0.000165661
0.000157647
0.000149303
0.00014063
0.000131626
0.00012229
0.000112622
0.00010262
9.22838e-05
8.1612e-05
7.06038e-05
5.92582e-05
4.75743e-05
3.5551e-05
2.31875e-05
1.04828e-05
-2.56403e-06
-1.59539e-05
-2.96877e-05
-4.37663e-05
-5.81905e-05
-7.29612e-05
-8.80791e-05
-0.000103545
-0.00011936
-0.000135524
-0.000152037
-0.000168902
-0.000186118
-0.000203685
-0.000221604
-0.000239875
-0.000258499
-0.000277475
-0.000296804
-0.000316486
-0.000336521
-0.000356909
-0.000377648
-0.00039874
-0.000420183
-0.000441977
-0.000464122
-0.000486615
-0.000509458
-0.000532647
-0.000556183
-0.000580063
-0.000604287
-0.000628852
-0.000653757
-0.000679
-0.000704579
-0.000730491
-0.000756733
-0.000783303
-0.000810199
-0.000837416
-0.000864952
-0.000892804
-0.000920966
-0.000949436
-0.000978208
-0.00100728
-0.00103664
-0.0010663
-0.00109624
-0.00112645
-0.00115694
-0.00118769
-0.0012187
-0.00124997
-0.00128148
-0.00131323
-0.00134522
-0.00137742
)
;

boundaryField
{
    left
    {
        type            calculated;
        value           uniform 0.000261192;
    }
    right
    {
        type            calculated;
        value           uniform -0.00139363;
    }
    frontAndBack
    {
        type            empty;
    }
    top_bottom
    {
        type            calculated;
        value           nonuniform List<scalar> 
200
(
0.000261192
0.000260875
0.000260242
0.000259293
0.000258027
0.000256444
0.000254545
0.000252327
0.000249793
0.00024694
0.000243769
0.00024028
0.000236471
0.000232343
0.000227895
0.000223125
0.000218035
0.000212623
0.000206887
0.000200829
0.000194447
0.000187739
0.000180707
0.000173347
0.000165661
0.000157647
0.000149303
0.00014063
0.000131626
0.00012229
0.000112622
0.00010262
9.22838e-05
8.1612e-05
7.06038e-05
5.92582e-05
4.75743e-05
3.5551e-05
2.31875e-05
1.04828e-05
-2.56403e-06
-1.59539e-05
-2.96877e-05
-4.37663e-05
-5.81905e-05
-7.29612e-05
-8.80791e-05
-0.000103545
-0.00011936
-0.000135524
-0.000152037
-0.000168902
-0.000186118
-0.000203685
-0.000221604
-0.000239875
-0.000258499
-0.000277475
-0.000296804
-0.000316486
-0.000336521
-0.000356909
-0.000377648
-0.00039874
-0.000420183
-0.000441977
-0.000464122
-0.000486615
-0.000509458
-0.000532647
-0.000556183
-0.000580063
-0.000604287
-0.000628852
-0.000653757
-0.000679
-0.000704579
-0.000730491
-0.000756733
-0.000783303
-0.000810199
-0.000837416
-0.000864952
-0.000892804
-0.000920966
-0.000949436
-0.000978208
-0.00100728
-0.00103664
-0.0010663
-0.00109624
-0.00112645
-0.00115694
-0.00118769
-0.0012187
-0.00124997
-0.00128148
-0.00131323
-0.00134522
-0.00137742
0.000261192
0.000260875
0.000260242
0.000259293
0.000258027
0.000256444
0.000254545
0.000252327
0.000249793
0.00024694
0.000243769
0.00024028
0.000236471
0.000232343
0.000227895
0.000223125
0.000218035
0.000212623
0.000206887
0.000200829
0.000194447
0.000187739
0.000180707
0.000173347
0.000165661
0.000157647
0.000149303
0.00014063
0.000131626
0.00012229
0.000112622
0.00010262
9.22838e-05
8.1612e-05
7.06038e-05
5.92582e-05
4.75743e-05
3.5551e-05
2.31875e-05
1.04828e-05
-2.56403e-06
-1.59539e-05
-2.96877e-05
-4.37663e-05
-5.81905e-05
-7.29612e-05
-8.80791e-05
-0.000103545
-0.00011936
-0.000135524
-0.000152037
-0.000168902
-0.000186118
-0.000203685
-0.000221604
-0.000239875
-0.000258499
-0.000277475
-0.000296804
-0.000316486
-0.000336521
-0.000356909
-0.000377648
-0.00039874
-0.000420183
-0.000441977
-0.000464122
-0.000486615
-0.000509458
-0.000532647
-0.000556183
-0.000580063
-0.000604287
-0.000628852
-0.000653757
-0.000679
-0.000704579
-0.000730491
-0.000756733
-0.000783303
-0.000810199
-0.000837416
-0.000864952
-0.000892804
-0.000920966
-0.000949436
-0.000978208
-0.00100728
-0.00103664
-0.0010663
-0.00109624
-0.00112645
-0.00115694
-0.00118769
-0.0012187
-0.00124997
-0.00128148
-0.00131323
-0.00134522
-0.00137742
)
;
    }
}


// ************************************************************************* //
