/*--------------------------------*- C++ -*----------------------------------*\
  =========                 |
  \\      /  F ield         | OpenFOAM: The Open Source CFD Toolbox
   \\    /   O peration     | Website:  https://openfoam.org
    \\  /    A nd           | Version:  9
     \\/     M anipulation  |
\*---------------------------------------------------------------------------*/
FoamFile
{
    format      ascii;
    class       volScalarField;
    location    "126000";
    object      gradTx;
}
// * * * * * * * * * * * * * * * * * * * * * * * * * * * * * * * * * * * * * //

dimensions      [0 -1 0 1 0 0 0];

internalField   nonuniform List<scalar> 
100
(
-499.578
-498.735
-497.894
-497.055
-496.221
-495.391
-494.567
-493.751
-492.942
-492.143
-491.355
-490.578
-489.814
-489.063
-488.327
-487.608
-486.905
-486.221
-485.556
-484.911
-484.288
-483.688
-483.112
-482.56
-482.035
-481.537
-481.067
-480.626
-480.217
-479.839
-479.494
-479.183
-478.907
-478.668
-478.466
-478.303
-478.179
-478.097
-478.057
-478.061
-478.108
-478.202
-478.343
-478.531
-478.769
-479.057
-479.397
-479.79
-480.237
-480.739
-481.298
-481.914
-482.589
-483.324
-484.12
-484.979
-485.901
-486.888
-487.941
-489.062
-490.251
-491.509
-492.838
-494.24
-495.714
-497.263
-498.888
-500.589
-502.368
-504.226
-506.165
-508.185
-510.288
-512.474
-514.746
-517.103
-519.548
-522.081
-524.703
-527.416
-530.221
-533.118
-536.109
-539.195
-542.376
-545.654
-549.031
-552.506
-556.081
-559.757
-563.534
-567.414
-571.398
-575.486
-579.68
-583.979
-588.386
-592.9
-597.522
-602.254
)
;

boundaryField
{
    left
    {
        type            calculated;
        value           uniform -500;
    }
    right
    {
        type            calculated;
        value           uniform -604.647;
    }
    frontAndBack
    {
        type            empty;
    }
    top_bottom
    {
        type            calculated;
        value           nonuniform List<scalar> 
200
(
-499.578
-498.735
-497.894
-497.055
-496.221
-495.391
-494.567
-493.751
-492.942
-492.143
-491.355
-490.578
-489.814
-489.063
-488.327
-487.608
-486.905
-486.221
-485.556
-484.911
-484.288
-483.688
-483.112
-482.56
-482.035
-481.537
-481.067
-480.626
-480.217
-479.839
-479.494
-479.183
-478.907
-478.668
-478.466
-478.303
-478.179
-478.097
-478.057
-478.061
-478.108
-478.202
-478.343
-478.531
-478.769
-479.057
-479.397
-479.79
-480.237
-480.739
-481.298
-481.914
-482.589
-483.324
-484.12
-484.979
-485.901
-486.888
-487.941
-489.062
-490.251
-491.509
-492.838
-494.24
-495.714
-497.263
-498.888
-500.589
-502.368
-504.226
-506.165
-508.185
-510.288
-512.474
-514.746
-517.103
-519.548
-522.081
-524.703
-527.416
-530.221
-533.118
-536.109
-539.195
-542.376
-545.654
-549.031
-552.506
-556.081
-559.757
-563.534
-567.414
-571.398
-575.486
-579.68
-583.979
-588.386
-592.9
-597.522
-602.254
-499.578
-498.735
-497.894
-497.055
-496.221
-495.391
-494.567
-493.751
-492.942
-492.143
-491.355
-490.578
-489.814
-489.063
-488.327
-487.608
-486.905
-486.221
-485.556
-484.911
-484.288
-483.688
-483.112
-482.56
-482.035
-481.537
-481.067
-480.626
-480.217
-479.839
-479.494
-479.183
-478.907
-478.668
-478.466
-478.303
-478.179
-478.097
-478.057
-478.061
-478.108
-478.202
-478.343
-478.531
-478.769
-479.057
-479.397
-479.79
-480.237
-480.739
-481.298
-481.914
-482.589
-483.324
-484.12
-484.979
-485.901
-486.888
-487.941
-489.062
-490.251
-491.509
-492.838
-494.24
-495.714
-497.263
-498.888
-500.589
-502.368
-504.226
-506.165
-508.185
-510.288
-512.474
-514.746
-517.103
-519.548
-522.081
-524.703
-527.416
-530.221
-533.118
-536.109
-539.195
-542.376
-545.654
-549.031
-552.506
-556.081
-559.757
-563.534
-567.414
-571.398
-575.486
-579.68
-583.979
-588.386
-592.9
-597.522
-602.254
)
;
    }
}


// ************************************************************************* //
