/*--------------------------------*- C++ -*----------------------------------*\
  =========                 |
  \\      /  F ield         | OpenFOAM: The Open Source CFD Toolbox
   \\    /   O peration     | Website:  https://openfoam.org
    \\  /    A nd           | Version:  9
     \\/     M anipulation  |
\*---------------------------------------------------------------------------*/
FoamFile
{
    format      ascii;
    class       volScalarField;
    location    "126000";
    object      T;
}
// * * * * * * * * * * * * * * * * * * * * * * * * * * * * * * * * * * * * * //

dimensions      [0 0 0 1 0 0 0];

internalField   nonuniform List<scalar> 
100
(
398.636
397.638
396.641
395.646
394.653
393.662
392.672
391.683
390.697
389.711
388.728
387.746
386.766
385.787
384.809
383.833
382.859
381.886
380.914
379.944
378.974
378.006
377.04
376.074
375.109
374.146
373.183
372.222
371.261
370.301
369.341
368.383
367.425
366.467
365.51
364.553
363.597
362.641
361.684
360.728
359.772
358.816
357.859
356.903
355.945
354.987
354.029
353.07
352.11
351.149
350.187
349.224
348.259
347.293
346.326
345.357
344.386
343.413
342.439
341.462
340.482
339.501
338.516
337.529
336.539
335.546
334.55
333.551
332.548
331.541
330.531
329.517
328.498
327.475
326.448
325.417
324.38
323.338
322.292
321.24
320.182
319.119
318.049
316.974
315.893
314.805
313.71
312.609
311.5
310.384
309.261
308.13
306.991
305.845
304.689
303.526
302.353
301.172
299.982
298.782
)
;

boundaryField
{
    left
    {
        type            fixedGradient;
        gradient        uniform 500;
    }
    right
    {
        type            uniformFixedValue;
        uniformValue    
        {
            type            sine;
            amplitude       
            {
                type            constant;
                value           20;
            }
            frequency       1.1574e-05;
            start           0;
            level           
            {
                type            constant;
                value           293;
            }
        }
        value           uniform 298.178;
    }
    frontAndBack
    {
        type            empty;
    }
    top_bottom
    {
        type            zeroGradient;
    }
}


// ************************************************************************* //
