/*--------------------------------*- C++ -*----------------------------------*\
  =========                 |
  \\      /  F ield         | OpenFOAM: The Open Source CFD Toolbox
   \\    /   O peration     | Website:  https://openfoam.org
    \\  /    A nd           | Version:  9
     \\/     M anipulation  |
\*---------------------------------------------------------------------------*/
FoamFile
{
    format      ascii;
    class       volScalarField;
    location    "126000";
    object      T_0;
}
// * * * * * * * * * * * * * * * * * * * * * * * * * * * * * * * * * * * * * //

dimensions      [0 0 0 1 0 0 0];

internalField   nonuniform List<scalar> 
100
(
398.546
397.548
396.551
395.557
394.564
393.573
392.583
391.596
390.61
389.626
388.644
387.663
386.684
385.707
384.731
383.757
382.784
381.813
380.843
379.875
378.908
377.943
376.978
376.015
375.053
374.093
373.133
372.175
371.217
370.26
369.305
368.35
367.395
366.442
365.488
364.536
363.583
362.632
361.68
360.728
359.777
358.825
357.874
356.922
355.97
355.018
354.065
353.111
352.157
351.202
350.246
349.288
348.33
347.371
346.41
345.447
344.483
343.517
342.549
341.579
340.607
339.633
338.656
337.677
336.694
335.709
334.721
333.73
332.735
331.737
330.735
329.729
328.719
327.706
326.687
325.665
324.637
323.605
322.568
321.525
320.477
319.424
318.364
317.299
316.228
315.15
314.065
312.974
311.876
310.771
309.659
308.539
307.411
306.275
305.131
303.978
302.817
301.647
300.469
299.28
)
;

boundaryField
{
    left
    {
        type            fixedGradient;
        gradient        uniform 500;
    }
    right
    {
        type            uniformFixedValue;
        uniformValue    
        {
            type            sine;
            amplitude       
            {
                type            constant;
                value           20;
            }
            frequency       1.1574e-05;
            start           0;
            level           
            {
                type            constant;
                value           293;
            }
        }
        value           uniform 298.681;
    }
    frontAndBack
    {
        type            empty;
    }
    top_bottom
    {
        type            zeroGradient;
    }
}


// ************************************************************************* //
