/*--------------------------------*- C++ -*----------------------------------*\
  =========                 |
  \\      /  F ield         | OpenFOAM: The Open Source CFD Toolbox
   \\    /   O peration     | Website:  https://openfoam.org
    \\  /    A nd           | Version:  9
     \\/     M anipulation  |
\*---------------------------------------------------------------------------*/
FoamFile
{
    format      ascii;
    class       volScalarField;
    location    "108000";
    object      ddt0(T);
}
// * * * * * * * * * * * * * * * * * * * * * * * * * * * * * * * * * * * * * //

dimensions      [0 0 -1 1 0 0 0];

internalField   nonuniform List<scalar> 
100
(
0.000766191
0.000766169
0.000766124
0.000766056
0.000765965
0.00076585
0.000765711
0.000765546
0.000765355
0.000765136
0.000764888
0.000764609
0.000764299
0.000763954
0.000763574
0.000763156
0.000762698
0.000762197
0.000761651
0.000761058
0.000760415
0.000759717
0.000758964
0.000758151
0.000757274
0.000756331
0.000755318
0.00075423
0.000753064
0.000751816
0.000750481
0.000749055
0.000747533
0.00074591
0.000744183
0.000742345
0.000740391
0.000738316
0.000736115
0.000733782
0.000731312
0.000728697
0.000725933
0.000723012
0.00071993
0.000716678
0.000713251
0.000709641
0.000705842
0.000701846
0.000697647
0.000693237
0.000688607
0.000683752
0.000678662
0.000673331
0.000667749
0.000661908
0.000655801
0.000649418
0.000642752
0.000635792
0.00062853
0.000620958
0.000613066
0.000604844
0.000596283
0.000587373
0.000578106
0.00056847
0.000558456
0.000548054
0.000537254
0.000526045
0.000514416
0.000502358
0.000489859
0.000476909
0.000463497
0.000449612
0.000435242
0.000420376
0.000405004
0.000389114
0.000372694
0.000355732
0.000338218
0.000320139
0.000301483
0.000282238
0.000262393
0.000241936
0.000220854
0.000199136
0.000176768
0.000153739
0.000130037
0.000105649
8.05629e-05
5.47662e-05
)
;

boundaryField
{
    left
    {
        type            calculated;
        value           uniform 0.000766191;
    }
    right
    {
        type            calculated;
        value           uniform 4.15063e-05;
    }
    frontAndBack
    {
        type            empty;
    }
    top_bottom
    {
        type            calculated;
        value           nonuniform List<scalar> 
200
(
0.000766191
0.000766169
0.000766124
0.000766056
0.000765965
0.00076585
0.000765711
0.000765546
0.000765355
0.000765136
0.000764888
0.000764609
0.000764299
0.000763954
0.000763574
0.000763156
0.000762698
0.000762197
0.000761651
0.000761058
0.000760415
0.000759717
0.000758964
0.000758151
0.000757274
0.000756331
0.000755318
0.00075423
0.000753064
0.000751816
0.000750481
0.000749055
0.000747533
0.00074591
0.000744183
0.000742345
0.000740391
0.000738316
0.000736115
0.000733782
0.000731312
0.000728697
0.000725933
0.000723012
0.00071993
0.000716678
0.000713251
0.000709641
0.000705842
0.000701846
0.000697647
0.000693237
0.000688607
0.000683752
0.000678662
0.000673331
0.000667749
0.000661908
0.000655801
0.000649418
0.000642752
0.000635792
0.00062853
0.000620958
0.000613066
0.000604844
0.000596283
0.000587373
0.000578106
0.00056847
0.000558456
0.000548054
0.000537254
0.000526045
0.000514416
0.000502358
0.000489859
0.000476909
0.000463497
0.000449612
0.000435242
0.000420376
0.000405004
0.000389114
0.000372694
0.000355732
0.000338218
0.000320139
0.000301483
0.000282238
0.000262393
0.000241936
0.000220854
0.000199136
0.000176768
0.000153739
0.000130037
0.000105649
8.05629e-05
5.47662e-05
0.000766191
0.000766169
0.000766124
0.000766056
0.000765965
0.00076585
0.000765711
0.000765546
0.000765355
0.000765136
0.000764888
0.000764609
0.000764299
0.000763954
0.000763574
0.000763156
0.000762698
0.000762197
0.000761651
0.000761058
0.000760415
0.000759717
0.000758964
0.000758151
0.000757274
0.000756331
0.000755318
0.00075423
0.000753064
0.000751816
0.000750481
0.000749055
0.000747533
0.00074591
0.000744183
0.000742345
0.000740391
0.000738316
0.000736115
0.000733782
0.000731312
0.000728697
0.000725933
0.000723012
0.00071993
0.000716678
0.000713251
0.000709641
0.000705842
0.000701846
0.000697647
0.000693237
0.000688607
0.000683752
0.000678662
0.000673331
0.000667749
0.000661908
0.000655801
0.000649418
0.000642752
0.000635792
0.00062853
0.000620958
0.000613066
0.000604844
0.000596283
0.000587373
0.000578106
0.00056847
0.000558456
0.000548054
0.000537254
0.000526045
0.000514416
0.000502358
0.000489859
0.000476909
0.000463497
0.000449612
0.000435242
0.000420376
0.000405004
0.000389114
0.000372694
0.000355732
0.000338218
0.000320139
0.000301483
0.000282238
0.000262393
0.000241936
0.000220854
0.000199136
0.000176768
0.000153739
0.000130037
0.000105649
8.05629e-05
5.47662e-05
)
;
    }
}


// ************************************************************************* //
