/*--------------------------------*- C++ -*----------------------------------*\
  =========                 |
  \\      /  F ield         | OpenFOAM: The Open Source CFD Toolbox
   \\    /   O peration     | Website:  https://openfoam.org
    \\  /    A nd           | Version:  9
     \\/     M anipulation  |
\*---------------------------------------------------------------------------*/
FoamFile
{
    format      ascii;
    class       volScalarField;
    location    "108000";
    object      gradTx;
}
// * * * * * * * * * * * * * * * * * * * * * * * * * * * * * * * * * * * * * //

dimensions      [0 -1 0 1 0 0 0];

internalField   nonuniform List<scalar> 
100
(
-498.681
-496.044
-493.407
-490.771
-488.134
-485.498
-482.863
-480.228
-477.595
-474.962
-472.33
-469.699
-467.07
-464.442
-461.816
-459.192
-456.569
-453.949
-451.33
-448.715
-446.102
-443.491
-440.884
-438.28
-435.68
-433.084
-430.491
-427.903
-425.32
-422.741
-420.168
-417.6
-415.038
-412.482
-409.934
-407.392
-404.857
-402.331
-399.813
-397.304
-394.804
-392.314
-389.834
-387.365
-384.908
-382.463
-380.031
-377.612
-375.207
-372.817
-370.442
-368.083
-365.741
-363.418
-361.112
-358.826
-356.561
-354.316
-352.094
-349.895
-347.719
-345.569
-343.445
-341.348
-339.28
-337.241
-335.233
-333.256
-331.313
-329.404
-327.53
-325.694
-323.896
-322.138
-320.421
-318.747
-317.117
-315.533
-313.996
-312.509
-311.072
-309.687
-308.357
-307.083
-305.866
-304.709
-303.614
-302.582
-301.615
-300.716
-299.887
-299.129
-298.445
-297.836
-297.306
-296.857
-296.49
-296.208
-296.014
-295.91
)
;

boundaryField
{
    left
    {
        type            calculated;
        value           uniform -500;
    }
    right
    {
        type            calculated;
        value           uniform -295.881;
    }
    frontAndBack
    {
        type            empty;
    }
    top_bottom
    {
        type            calculated;
        value           nonuniform List<scalar> 
200
(
-498.681
-496.044
-493.407
-490.771
-488.134
-485.498
-482.863
-480.228
-477.595
-474.962
-472.33
-469.699
-467.07
-464.442
-461.816
-459.192
-456.569
-453.949
-451.33
-448.715
-446.102
-443.491
-440.884
-438.28
-435.68
-433.084
-430.491
-427.903
-425.32
-422.741
-420.168
-417.6
-415.038
-412.482
-409.934
-407.392
-404.857
-402.331
-399.813
-397.304
-394.804
-392.314
-389.834
-387.365
-384.908
-382.463
-380.031
-377.612
-375.207
-372.817
-370.442
-368.083
-365.741
-363.418
-361.112
-358.826
-356.561
-354.316
-352.094
-349.895
-347.719
-345.569
-343.445
-341.348
-339.28
-337.241
-335.233
-333.256
-331.313
-329.404
-327.53
-325.694
-323.896
-322.138
-320.421
-318.747
-317.117
-315.533
-313.996
-312.509
-311.072
-309.687
-308.357
-307.083
-305.866
-304.709
-303.614
-302.582
-301.615
-300.716
-299.887
-299.129
-298.445
-297.836
-297.306
-296.857
-296.49
-296.208
-296.014
-295.91
-498.681
-496.044
-493.407
-490.771
-488.134
-485.498
-482.863
-480.228
-477.595
-474.962
-472.33
-469.699
-467.07
-464.442
-461.816
-459.192
-456.569
-453.949
-451.33
-448.715
-446.102
-443.491
-440.884
-438.28
-435.68
-433.084
-430.491
-427.903
-425.32
-422.741
-420.168
-417.6
-415.038
-412.482
-409.934
-407.392
-404.857
-402.331
-399.813
-397.304
-394.804
-392.314
-389.834
-387.365
-384.908
-382.463
-380.031
-377.612
-375.207
-372.817
-370.442
-368.083
-365.741
-363.418
-361.112
-358.826
-356.561
-354.316
-352.094
-349.895
-347.719
-345.569
-343.445
-341.348
-339.28
-337.241
-335.233
-333.256
-331.313
-329.404
-327.53
-325.694
-323.896
-322.138
-320.421
-318.747
-317.117
-315.533
-313.996
-312.509
-311.072
-309.687
-308.357
-307.083
-305.866
-304.709
-303.614
-302.582
-301.615
-300.716
-299.887
-299.129
-298.445
-297.836
-297.306
-296.857
-296.49
-296.208
-296.014
-295.91
)
;
    }
}


// ************************************************************************* //
