/*--------------------------------*- C++ -*----------------------------------*\
  =========                 |
  \\      /  F ield         | OpenFOAM: The Open Source CFD Toolbox
   \\    /   O peration     | Website:  https://openfoam.org
    \\  /    A nd           | Version:  9
     \\/     M anipulation  |
\*---------------------------------------------------------------------------*/
FoamFile
{
    format      ascii;
    class       volScalarField;
    location    "108000";
    object      T;
}
// * * * * * * * * * * * * * * * * * * * * * * * * * * * * * * * * * * * * * //

dimensions      [0 0 0 1 0 0 0];

internalField   nonuniform List<scalar> 
100
(
388.406
387.411
386.421
385.437
384.458
383.485
382.516
381.553
380.595
379.643
378.696
377.754
376.817
375.885
374.959
374.038
373.122
372.212
371.306
370.406
369.512
368.622
367.738
366.858
365.985
365.116
364.252
363.394
362.541
361.693
360.85
360.012
359.179
358.352
357.529
356.712
355.9
355.093
354.29
353.493
352.701
351.914
351.132
350.355
349.582
348.815
348.053
347.295
346.542
345.794
345.051
344.312
343.579
342.849
342.125
341.405
340.69
339.979
339.272
338.57
337.873
337.179
336.49
335.806
335.125
334.449
333.776
333.108
332.443
331.782
331.125
330.472
329.823
329.177
328.534
327.895
327.259
326.627
325.997
325.371
324.747
324.126
323.508
322.893
322.28
321.669
321.061
320.455
319.851
319.248
318.648
318.049
317.451
316.855
316.26
315.666
315.073
314.48
313.888
313.296
)
;

boundaryField
{
    left
    {
        type            fixedGradient;
        gradient        uniform 500;
    }
    right
    {
        type            uniformFixedValue;
        uniformValue    
        {
            type            sine;
            amplitude       
            {
                type            constant;
                value           20;
            }
            frequency       1.1574e-05;
            start           0;
            level           
            {
                type            constant;
                value           293;
            }
        }
        value           uniform 313;
    }
    frontAndBack
    {
        type            empty;
    }
    top_bottom
    {
        type            zeroGradient;
    }
}


// ************************************************************************* //
