/*--------------------------------*- C++ -*----------------------------------*\
  =========                 |
  \\      /  F ield         | OpenFOAM: The Open Source CFD Toolbox
   \\    /   O peration     | Website:  https://openfoam.org
    \\  /    A nd           | Version:  9
     \\/     M anipulation  |
\*---------------------------------------------------------------------------*/
FoamFile
{
    format      ascii;
    class       volScalarField;
    location    "108000";
    object      T_0;
}
// * * * * * * * * * * * * * * * * * * * * * * * * * * * * * * * * * * * * * //

dimensions      [0 0 0 1 0 0 0];

internalField   nonuniform List<scalar> 
100
(
388.13
387.135
386.146
385.162
384.183
383.209
382.241
381.278
380.32
379.368
378.421
377.479
376.542
375.611
374.685
373.764
372.848
371.938
371.033
370.133
369.239
368.349
367.465
366.586
365.713
364.844
363.981
363.123
362.27
361.423
360.58
359.743
358.911
358.084
357.263
356.446
355.635
354.828
354.027
353.231
352.44
351.653
350.872
350.096
349.325
348.559
347.798
347.042
346.29
345.544
344.802
344.065
343.333
342.606
341.883
341.165
340.452
339.743
339.039
338.34
337.645
336.954
336.268
335.586
334.908
334.235
333.565
332.9
332.239
331.582
330.929
330.279
329.634
328.992
328.354
327.719
327.088
326.46
325.835
325.214
324.596
323.981
323.368
322.759
322.152
321.547
320.946
320.346
319.749
319.154
318.56
317.969
317.379
316.791
316.204
315.618
315.033
314.45
313.867
313.284
)
;

boundaryField
{
    left
    {
        type            fixedGradient;
        gradient        uniform 500;
    }
    right
    {
        type            uniformFixedValue;
        uniformValue    
        {
            type            sine;
            amplitude       
            {
                type            constant;
                value           20;
            }
            frequency       1.1574e-05;
            start           0;
            level           
            {
                type            constant;
                value           293;
            }
        }
        value           uniform 312.993;
    }
    frontAndBack
    {
        type            empty;
    }
    top_bottom
    {
        type            zeroGradient;
    }
}


// ************************************************************************* //
