/*--------------------------------*- C++ -*----------------------------------*\
  =========                 |
  \\      /  F ield         | OpenFOAM: The Open Source CFD Toolbox
   \\    /   O peration     | Website:  https://openfoam.org
    \\  /    A nd           | Version:  9
     \\/     M anipulation  |
\*---------------------------------------------------------------------------*/
FoamFile
{
    format      ascii;
    class       volScalarField;
    location    "122400";
    object      ddt0(T);
}
// * * * * * * * * * * * * * * * * * * * * * * * * * * * * * * * * * * * * * //

dimensions      [0 0 -1 1 0 0 0];

internalField   nonuniform List<scalar> 
100
(
0.000419015
0.00041873
0.000418161
0.000417307
0.000416168
0.000414743
0.000413033
0.000411036
0.000408753
0.000406182
0.000403323
0.000400175
0.000396737
0.000393009
0.000388989
0.000384676
0.000380069
0.000375167
0.000369968
0.000364472
0.000358677
0.00035258
0.000346182
0.00033948
0.000332472
0.000325156
0.000317532
0.000309597
0.000301348
0.000292785
0.000283905
0.000274706
0.000265186
0.000255342
0.000245173
0.000234677
0.00022385
0.000212691
0.000201197
0.000189366
0.000177195
0.000164683
0.000151826
0.000138622
0.000125068
0.000111162
9.69023e-05
8.22851e-05
6.73082e-05
5.19691e-05
3.62652e-05
2.0194e-05
3.75294e-06
-1.30605e-05
-3.02489e-05
-4.78146e-05
-6.57602e-05
-8.40881e-05
-0.000102801
-0.0001219
-0.000141389
-0.00016127
-0.000181544
-0.000202215
-0.000223284
-0.000244753
-0.000266624
-0.0002889
-0.000311581
-0.00033467
-0.000358168
-0.000382077
-0.000406399
-0.000431134
-0.000456284
-0.00048185
-0.000507833
-0.000534234
-0.000561054
-0.000588293
-0.000615951
-0.00064403
-0.000672528
-0.000701446
-0.000730785
-0.000760542
-0.000790718
-0.000821312
-0.000852323
-0.00088375
-0.00091559
-0.000947844
-0.000980508
-0.00101358
-0.00104706
-0.00108094
-0.00111523
-0.00114991
-0.00118498
-0.00122045
)
;

boundaryField
{
    left
    {
        type            calculated;
        value           uniform 0.000419015;
    }
    right
    {
        type            calculated;
        value           uniform -0.00123837;
    }
    frontAndBack
    {
        type            empty;
    }
    top_bottom
    {
        type            calculated;
        value           nonuniform List<scalar> 
200
(
0.000419015
0.00041873
0.000418161
0.000417307
0.000416168
0.000414743
0.000413033
0.000411036
0.000408753
0.000406182
0.000403323
0.000400175
0.000396737
0.000393009
0.000388989
0.000384676
0.000380069
0.000375167
0.000369968
0.000364472
0.000358677
0.00035258
0.000346182
0.00033948
0.000332472
0.000325156
0.000317532
0.000309597
0.000301348
0.000292785
0.000283905
0.000274706
0.000265186
0.000255342
0.000245173
0.000234677
0.00022385
0.000212691
0.000201197
0.000189366
0.000177195
0.000164683
0.000151826
0.000138622
0.000125068
0.000111162
9.69023e-05
8.22851e-05
6.73082e-05
5.19691e-05
3.62652e-05
2.0194e-05
3.75294e-06
-1.30605e-05
-3.02489e-05
-4.78146e-05
-6.57602e-05
-8.40881e-05
-0.000102801
-0.0001219
-0.000141389
-0.00016127
-0.000181544
-0.000202215
-0.000223284
-0.000244753
-0.000266624
-0.0002889
-0.000311581
-0.00033467
-0.000358168
-0.000382077
-0.000406399
-0.000431134
-0.000456284
-0.00048185
-0.000507833
-0.000534234
-0.000561054
-0.000588293
-0.000615951
-0.00064403
-0.000672528
-0.000701446
-0.000730785
-0.000760542
-0.000790718
-0.000821312
-0.000852323
-0.00088375
-0.00091559
-0.000947844
-0.000980508
-0.00101358
-0.00104706
-0.00108094
-0.00111523
-0.00114991
-0.00118498
-0.00122045
0.000419015
0.00041873
0.000418161
0.000417307
0.000416168
0.000414743
0.000413033
0.000411036
0.000408753
0.000406182
0.000403323
0.000400175
0.000396737
0.000393009
0.000388989
0.000384676
0.000380069
0.000375167
0.000369968
0.000364472
0.000358677
0.00035258
0.000346182
0.00033948
0.000332472
0.000325156
0.000317532
0.000309597
0.000301348
0.000292785
0.000283905
0.000274706
0.000265186
0.000255342
0.000245173
0.000234677
0.00022385
0.000212691
0.000201197
0.000189366
0.000177195
0.000164683
0.000151826
0.000138622
0.000125068
0.000111162
9.69023e-05
8.22851e-05
6.73082e-05
5.19691e-05
3.62652e-05
2.0194e-05
3.75294e-06
-1.30605e-05
-3.02489e-05
-4.78146e-05
-6.57602e-05
-8.40881e-05
-0.000102801
-0.0001219
-0.000141389
-0.00016127
-0.000181544
-0.000202215
-0.000223284
-0.000244753
-0.000266624
-0.0002889
-0.000311581
-0.00033467
-0.000358168
-0.000382077
-0.000406399
-0.000431134
-0.000456284
-0.00048185
-0.000507833
-0.000534234
-0.000561054
-0.000588293
-0.000615951
-0.00064403
-0.000672528
-0.000701446
-0.000730785
-0.000760542
-0.000790718
-0.000821312
-0.000852323
-0.00088375
-0.00091559
-0.000947844
-0.000980508
-0.00101358
-0.00104706
-0.00108094
-0.00111523
-0.00114991
-0.00118498
-0.00122045
)
;
    }
}


// ************************************************************************* //
