/*--------------------------------*- C++ -*----------------------------------*\
  =========                 |
  \\      /  F ield         | OpenFOAM: The Open Source CFD Toolbox
   \\    /   O peration     | Website:  https://openfoam.org
    \\  /    A nd           | Version:  9
     \\/     M anipulation  |
\*---------------------------------------------------------------------------*/
FoamFile
{
    format      ascii;
    class       volScalarField;
    location    "122400";
    object      gradTx;
}
// * * * * * * * * * * * * * * * * * * * * * * * * * * * * * * * * * * * * * //

dimensions      [0 -1 0 1 0 0 0];

internalField   nonuniform List<scalar> 
100
(
-499.303
-497.911
-496.519
-495.131
-493.745
-492.365
-490.989
-489.621
-488.259
-486.906
-485.563
-484.23
-482.909
-481.6
-480.305
-479.024
-477.759
-476.51
-475.279
-474.067
-472.875
-471.703
-470.553
-469.426
-468.323
-467.245
-466.193
-465.168
-464.172
-463.205
-462.268
-461.363
-460.49
-459.651
-458.847
-458.079
-457.348
-456.656
-456.003
-455.391
-454.82
-454.293
-453.809
-453.371
-452.98
-452.636
-452.341
-452.097
-451.904
-451.764
-451.677
-451.646
-451.672
-451.755
-451.897
-452.1
-452.364
-452.691
-453.083
-453.54
-454.064
-454.656
-455.318
-456.05
-456.856
-457.734
-458.688
-459.718
-460.826
-462.014
-463.281
-464.631
-466.064
-467.582
-469.186
-470.878
-472.659
-474.53
-476.493
-478.549
-480.7
-482.947
-485.292
-487.735
-490.279
-492.925
-495.674
-498.527
-501.486
-504.553
-507.728
-511.014
-514.411
-517.921
-521.545
-525.285
-529.142
-533.117
-537.212
-541.427
)
;

boundaryField
{
    left
    {
        type            calculated;
        value           uniform -500;
    }
    right
    {
        type            calculated;
        value           uniform -543.565;
    }
    frontAndBack
    {
        type            empty;
    }
    top_bottom
    {
        type            calculated;
        value           nonuniform List<scalar> 
200
(
-499.303
-497.911
-496.519
-495.131
-493.745
-492.365
-490.989
-489.621
-488.259
-486.906
-485.563
-484.23
-482.909
-481.6
-480.305
-479.024
-477.759
-476.51
-475.279
-474.067
-472.875
-471.703
-470.553
-469.426
-468.323
-467.245
-466.193
-465.168
-464.172
-463.205
-462.268
-461.363
-460.49
-459.651
-458.847
-458.079
-457.348
-456.656
-456.003
-455.391
-454.82
-454.293
-453.809
-453.371
-452.98
-452.636
-452.341
-452.097
-451.904
-451.764
-451.677
-451.646
-451.672
-451.755
-451.897
-452.1
-452.364
-452.691
-453.083
-453.54
-454.064
-454.656
-455.318
-456.05
-456.856
-457.734
-458.688
-459.718
-460.826
-462.014
-463.281
-464.631
-466.064
-467.582
-469.186
-470.878
-472.659
-474.53
-476.493
-478.549
-480.7
-482.947
-485.292
-487.735
-490.279
-492.925
-495.674
-498.527
-501.486
-504.553
-507.728
-511.014
-514.411
-517.921
-521.545
-525.285
-529.142
-533.117
-537.212
-541.427
-499.303
-497.911
-496.519
-495.131
-493.745
-492.365
-490.989
-489.621
-488.259
-486.906
-485.563
-484.23
-482.909
-481.6
-480.305
-479.024
-477.759
-476.51
-475.279
-474.067
-472.875
-471.703
-470.553
-469.426
-468.323
-467.245
-466.193
-465.168
-464.172
-463.205
-462.268
-461.363
-460.49
-459.651
-458.847
-458.079
-457.348
-456.656
-456.003
-455.391
-454.82
-454.293
-453.809
-453.371
-452.98
-452.636
-452.341
-452.097
-451.904
-451.764
-451.677
-451.646
-451.672
-451.755
-451.897
-452.1
-452.364
-452.691
-453.083
-453.54
-454.064
-454.656
-455.318
-456.05
-456.856
-457.734
-458.688
-459.718
-460.826
-462.014
-463.281
-464.631
-466.064
-467.582
-469.186
-470.878
-472.659
-474.53
-476.493
-478.549
-480.7
-482.947
-485.292
-487.735
-490.279
-492.925
-495.674
-498.527
-501.486
-504.553
-507.728
-511.014
-514.411
-517.921
-521.545
-525.285
-529.142
-533.117
-537.212
-541.427
)
;
    }
}


// ************************************************************************* //
