/*--------------------------------*- C++ -*----------------------------------*\
  =========                 |
  \\      /  F ield         | OpenFOAM: The Open Source CFD Toolbox
   \\    /   O peration     | Website:  https://openfoam.org
    \\  /    A nd           | Version:  9
     \\/     M anipulation  |
\*---------------------------------------------------------------------------*/
FoamFile
{
    format      ascii;
    class       volScalarField;
    location    "122400";
    object      T;
}
// * * * * * * * * * * * * * * * * * * * * * * * * * * * * * * * * * * * * * //

dimensions      [0 0 0 1 0 0 0];

internalField   nonuniform List<scalar> 
100
(
397.469
396.472
395.478
394.486
393.497
392.511
391.528
390.547
389.569
388.594
387.621
386.652
385.685
384.72
383.758
382.799
381.842
380.888
379.936
378.987
378.04
377.095
376.153
375.213
374.275
373.34
372.406
371.475
370.546
369.618
368.693
367.769
366.847
365.927
365.009
364.092
363.176
362.262
361.35
360.438
359.528
358.619
357.711
356.804
355.898
354.992
354.087
353.183
352.279
351.375
350.472
349.568
348.665
347.762
346.858
345.954
345.05
344.145
343.239
342.332
341.425
340.516
339.606
338.695
337.782
336.867
335.951
335.032
334.112
333.189
332.264
331.336
330.405
329.472
328.535
327.595
326.652
325.704
324.753
323.798
322.839
321.876
320.907
319.934
318.956
317.973
316.985
315.991
314.991
313.985
312.972
311.954
310.928
309.896
308.857
307.81
306.756
305.693
304.623
303.545
)
;

boundaryField
{
    left
    {
        type            fixedGradient;
        gradient        uniform 500;
    }
    right
    {
        type            uniformFixedValue;
        uniformValue    
        {
            type            sine;
            amplitude       
            {
                type            constant;
                value           20;
            }
            frequency       1.1574e-05;
            start           0;
            level           
            {
                type            constant;
                value           293;
            }
        }
        value           uniform 303.001;
    }
    frontAndBack
    {
        type            empty;
    }
    top_bottom
    {
        type            zeroGradient;
    }
}


// ************************************************************************* //
