/*--------------------------------*- C++ -*----------------------------------*\
  =========                 |
  \\      /  F ield         | OpenFOAM: The Open Source CFD Toolbox
   \\    /   O peration     | Website:  https://openfoam.org
    \\  /    A nd           | Version:  9
     \\/     M anipulation  |
\*---------------------------------------------------------------------------*/
FoamFile
{
    format      ascii;
    class       volScalarField;
    location    "122400";
    object      T_0;
}
// * * * * * * * * * * * * * * * * * * * * * * * * * * * * * * * * * * * * * //

dimensions      [0 0 0 1 0 0 0];

internalField   nonuniform List<scalar> 
100
(
397.322
396.324
395.33
394.339
393.35
392.365
391.382
390.402
389.425
388.451
387.479
386.511
385.545
384.582
383.621
382.664
381.708
380.756
379.806
378.859
377.914
376.972
376.032
375.094
374.159
373.226
372.295
371.367
370.441
369.516
368.594
367.674
366.755
365.839
364.924
364.011
363.099
362.19
361.281
360.374
359.468
358.564
357.66
356.758
355.856
354.956
354.056
353.157
352.258
351.36
350.463
349.565
348.668
347.77
346.873
345.975
345.077
344.179
343.28
342.38
341.48
340.578
339.676
338.772
337.867
336.96
336.051
335.141
334.229
333.314
332.397
331.478
330.556
329.632
328.704
327.773
326.839
325.901
324.96
324.015
323.066
322.112
321.154
320.192
319.224
318.252
317.274
316.291
315.302
314.307
313.307
312.299
311.286
310.265
309.238
308.203
307.161
306.112
305.054
303.988
)
;

boundaryField
{
    left
    {
        type            fixedGradient;
        gradient        uniform 500;
    }
    right
    {
        type            uniformFixedValue;
        uniformValue    
        {
            type            sine;
            amplitude       
            {
                type            constant;
                value           20;
            }
            frequency       1.1574e-05;
            start           0;
            level           
            {
                type            constant;
                value           293;
            }
        }
        value           uniform 303.451;
    }
    frontAndBack
    {
        type            empty;
    }
    top_bottom
    {
        type            zeroGradient;
    }
}


// ************************************************************************* //
