/*--------------------------------*- C++ -*----------------------------------*\
  =========                 |
  \\      /  F ield         | OpenFOAM: The Open Source CFD Toolbox
   \\    /   O peration     | Website:  https://openfoam.org
    \\  /    A nd           | Version:  9
     \\/     M anipulation  |
\*---------------------------------------------------------------------------*/
FoamFile
{
    format      ascii;
    class       volScalarField;
    location    "115200";
    object      ddt0(T);
}
// * * * * * * * * * * * * * * * * * * * * * * * * * * * * * * * * * * * * * //

dimensions      [0 0 -1 1 0 0 0];

internalField   nonuniform List<scalar> 
100
(
0.000662675
0.000662503
0.000662159
0.000661643
0.000660954
0.000660092
0.000659056
0.000657845
0.000656459
0.000654896
0.000653155
0.000651235
0.000649135
0.000646852
0.000644385
0.000641733
0.000638893
0.000635864
0.000632642
0.000629226
0.000625613
0.000621801
0.000617787
0.000613568
0.000609141
0.000604502
0.00059965
0.00059458
0.000589289
0.000583774
0.00057803
0.000572055
0.000565843
0.000559391
0.000552696
0.000545751
0.000538555
0.0005311
0.000523384
0.000515402
0.000507148
0.000498618
0.000489807
0.00048071
0.000471321
0.000461636
0.000451649
0.000441354
0.000430746
0.000419819
0.000408568
0.000396987
0.000385069
0.00037281
0.000360202
0.00034724
0.000333918
0.000320229
0.000306168
0.000291727
0.000276901
0.000261682
0.000246065
0.000230042
0.000213608
0.000196755
0.000179477
0.000161768
0.000143619
0.000125026
0.00010598
8.6475e-05
6.65045e-05
4.60613e-05
2.51386e-05
3.72976e-06
-1.81722e-05
-4.05741e-05
-6.34826e-05
-8.69046e-05
-0.000110847
-0.000135316
-0.000160319
-0.000185862
-0.000211951
-0.000238595
-0.000265798
-0.000293567
-0.000321908
-0.000350829
-0.000380335
-0.000410431
-0.000441125
-0.000472421
-0.000504326
-0.000536846
-0.000569985
-0.000603749
-0.000638144
-0.000673174
)
;

boundaryField
{
    left
    {
        type            calculated;
        value           uniform 0.000662675;
    }
    right
    {
        type            calculated;
        value           uniform -0.000691009;
    }
    frontAndBack
    {
        type            empty;
    }
    top_bottom
    {
        type            calculated;
        value           nonuniform List<scalar> 
200
(
0.000662675
0.000662503
0.000662159
0.000661643
0.000660954
0.000660092
0.000659056
0.000657845
0.000656459
0.000654896
0.000653155
0.000651235
0.000649135
0.000646852
0.000644385
0.000641733
0.000638893
0.000635864
0.000632642
0.000629226
0.000625613
0.000621801
0.000617787
0.000613568
0.000609141
0.000604502
0.00059965
0.00059458
0.000589289
0.000583774
0.00057803
0.000572055
0.000565843
0.000559391
0.000552696
0.000545751
0.000538555
0.0005311
0.000523384
0.000515402
0.000507148
0.000498618
0.000489807
0.00048071
0.000471321
0.000461636
0.000451649
0.000441354
0.000430746
0.000419819
0.000408568
0.000396987
0.000385069
0.00037281
0.000360202
0.00034724
0.000333918
0.000320229
0.000306168
0.000291727
0.000276901
0.000261682
0.000246065
0.000230042
0.000213608
0.000196755
0.000179477
0.000161768
0.000143619
0.000125026
0.00010598
8.6475e-05
6.65045e-05
4.60613e-05
2.51386e-05
3.72976e-06
-1.81722e-05
-4.05741e-05
-6.34826e-05
-8.69046e-05
-0.000110847
-0.000135316
-0.000160319
-0.000185862
-0.000211951
-0.000238595
-0.000265798
-0.000293567
-0.000321908
-0.000350829
-0.000380335
-0.000410431
-0.000441125
-0.000472421
-0.000504326
-0.000536846
-0.000569985
-0.000603749
-0.000638144
-0.000673174
0.000662675
0.000662503
0.000662159
0.000661643
0.000660954
0.000660092
0.000659056
0.000657845
0.000656459
0.000654896
0.000653155
0.000651235
0.000649135
0.000646852
0.000644385
0.000641733
0.000638893
0.000635864
0.000632642
0.000629226
0.000625613
0.000621801
0.000617787
0.000613568
0.000609141
0.000604502
0.00059965
0.00059458
0.000589289
0.000583774
0.00057803
0.000572055
0.000565843
0.000559391
0.000552696
0.000545751
0.000538555
0.0005311
0.000523384
0.000515402
0.000507148
0.000498618
0.000489807
0.00048071
0.000471321
0.000461636
0.000451649
0.000441354
0.000430746
0.000419819
0.000408568
0.000396987
0.000385069
0.00037281
0.000360202
0.00034724
0.000333918
0.000320229
0.000306168
0.000291727
0.000276901
0.000261682
0.000246065
0.000230042
0.000213608
0.000196755
0.000179477
0.000161768
0.000143619
0.000125026
0.00010598
8.6475e-05
6.65045e-05
4.60613e-05
2.51386e-05
3.72976e-06
-1.81722e-05
-4.05741e-05
-6.34826e-05
-8.69046e-05
-0.000110847
-0.000135316
-0.000160319
-0.000185862
-0.000211951
-0.000238595
-0.000265798
-0.000293567
-0.000321908
-0.000350829
-0.000380335
-0.000410431
-0.000441125
-0.000472421
-0.000504326
-0.000536846
-0.000569985
-0.000603749
-0.000638144
-0.000673174
)
;
    }
}


// ************************************************************************* //
