/*--------------------------------*- C++ -*----------------------------------*\
  =========                 |
  \\      /  F ield         | OpenFOAM: The Open Source CFD Toolbox
   \\    /   O peration     | Website:  https://openfoam.org
    \\  /    A nd           | Version:  9
     \\/     M anipulation  |
\*---------------------------------------------------------------------------*/
FoamFile
{
    format      ascii;
    class       volScalarField;
    location    "115200";
    object      gradTx;
}
// * * * * * * * * * * * * * * * * * * * * * * * * * * * * * * * * * * * * * //

dimensions      [0 -1 0 1 0 0 0];

internalField   nonuniform List<scalar> 
100
(
-498.873
-496.62
-494.368
-492.117
-489.869
-487.623
-485.381
-483.143
-480.909
-478.681
-476.458
-474.242
-472.034
-469.833
-467.641
-465.457
-463.284
-461.121
-458.97
-456.83
-454.703
-452.589
-450.489
-448.404
-446.334
-444.28
-442.244
-440.225
-438.225
-436.243
-434.282
-432.342
-430.424
-428.528
-426.655
-424.807
-422.984
-421.187
-419.417
-417.675
-415.962
-414.279
-412.626
-411.005
-409.417
-407.863
-406.344
-404.86
-403.414
-402.006
-400.637
-399.309
-398.022
-396.777
-395.577
-394.422
-393.314
-392.253
-391.241
-390.279
-389.369
-388.512
-387.709
-386.962
-386.272
-385.64
-385.069
-384.559
-384.112
-383.73
-383.413
-383.165
-382.986
-382.877
-382.841
-382.88
-382.994
-383.186
-383.457
-383.809
-384.244
-384.763
-385.369
-386.064
-386.848
-387.725
-388.696
-389.762
-390.926
-392.19
-393.556
-395.026
-396.602
-398.285
-400.078
-401.984
-404.003
-406.139
-408.394
-410.768
)
;

boundaryField
{
    left
    {
        type            calculated;
        value           uniform -500;
    }
    right
    {
        type            calculated;
        value           uniform -411.986;
    }
    frontAndBack
    {
        type            empty;
    }
    top_bottom
    {
        type            calculated;
        value           nonuniform List<scalar> 
200
(
-498.873
-496.62
-494.368
-492.117
-489.869
-487.623
-485.381
-483.143
-480.909
-478.681
-476.458
-474.242
-472.034
-469.833
-467.641
-465.457
-463.284
-461.121
-458.97
-456.83
-454.703
-452.589
-450.489
-448.404
-446.334
-444.28
-442.244
-440.225
-438.225
-436.243
-434.282
-432.342
-430.424
-428.528
-426.655
-424.807
-422.984
-421.187
-419.417
-417.675
-415.962
-414.279
-412.626
-411.005
-409.417
-407.863
-406.344
-404.86
-403.414
-402.006
-400.637
-399.309
-398.022
-396.777
-395.577
-394.422
-393.314
-392.253
-391.241
-390.279
-389.369
-388.512
-387.709
-386.962
-386.272
-385.64
-385.069
-384.559
-384.112
-383.73
-383.413
-383.165
-382.986
-382.877
-382.841
-382.88
-382.994
-383.186
-383.457
-383.809
-384.244
-384.763
-385.369
-386.064
-386.848
-387.725
-388.696
-389.762
-390.926
-392.19
-393.556
-395.026
-396.602
-398.285
-400.078
-401.984
-404.003
-406.139
-408.394
-410.768
-498.873
-496.62
-494.368
-492.117
-489.869
-487.623
-485.381
-483.143
-480.909
-478.681
-476.458
-474.242
-472.034
-469.833
-467.641
-465.457
-463.284
-461.121
-458.97
-456.83
-454.703
-452.589
-450.489
-448.404
-446.334
-444.28
-442.244
-440.225
-438.225
-436.243
-434.282
-432.342
-430.424
-428.528
-426.655
-424.807
-422.984
-421.187
-419.417
-417.675
-415.962
-414.279
-412.626
-411.005
-409.417
-407.863
-406.344
-404.86
-403.414
-402.006
-400.637
-399.309
-398.022
-396.777
-395.577
-394.422
-393.314
-392.253
-391.241
-390.279
-389.369
-388.512
-387.709
-386.962
-386.272
-385.64
-385.069
-384.559
-384.112
-383.73
-383.413
-383.165
-382.986
-382.877
-382.841
-382.88
-382.994
-383.186
-383.457
-383.809
-384.244
-384.763
-385.369
-386.064
-386.848
-387.725
-388.696
-389.762
-390.926
-392.19
-393.556
-395.026
-396.602
-398.285
-400.078
-401.984
-404.003
-406.139
-408.394
-410.768
)
;
    }
}


// ************************************************************************* //
