/*--------------------------------*- C++ -*----------------------------------*\
  =========                 |
  \\      /  F ield         | OpenFOAM: The Open Source CFD Toolbox
   \\    /   O peration     | Website:  https://openfoam.org
    \\  /    A nd           | Version:  9
     \\/     M anipulation  |
\*---------------------------------------------------------------------------*/
FoamFile
{
    format      ascii;
    class       volScalarField;
    location    "115200";
    object      T;
}
// * * * * * * * * * * * * * * * * * * * * * * * * * * * * * * * * * * * * * //

dimensions      [0 0 0 1 0 0 0];

internalField   nonuniform List<scalar> 
100
(
393.601
392.606
391.615
390.628
389.646
388.669
387.696
386.727
385.763
384.804
383.848
382.898
381.951
381.01
380.072
379.139
378.21
377.286
376.366
375.45
374.538
373.631
372.728
371.829
370.935
370.044
369.157
368.275
367.397
366.522
365.652
364.785
363.922
363.063
362.208
361.357
360.509
359.665
358.824
357.987
357.153
356.323
355.496
354.673
353.852
353.035
352.221
351.41
350.601
349.796
348.993
348.193
347.396
346.601
345.809
345.019
344.231
343.446
342.662
341.881
341.101
340.323
339.547
338.772
337.999
337.227
336.457
335.687
334.918
334.151
333.384
332.617
331.851
331.085
330.319
329.554
328.788
328.022
327.255
326.488
325.72
324.951
324.181
323.409
322.637
321.862
321.086
320.307
319.527
318.744
317.958
317.169
316.378
315.583
314.785
313.983
313.177
312.367
311.552
310.733
)
;

boundaryField
{
    left
    {
        type            fixedGradient;
        gradient        uniform 500;
    }
    right
    {
        type            uniformFixedValue;
        uniformValue    
        {
            type            sine;
            amplitude       
            {
                type            constant;
                value           20;
            }
            frequency       1.1574e-05;
            start           0;
            level           
            {
                type            constant;
                value           293;
            }
        }
        value           uniform 310.321;
    }
    frontAndBack
    {
        type            empty;
    }
    top_bottom
    {
        type            zeroGradient;
    }
}


// ************************************************************************* //
