/*--------------------------------*- C++ -*----------------------------------*\
  =========                 |
  \\      /  F ield         | OpenFOAM: The Open Source CFD Toolbox
   \\    /   O peration     | Website:  https://openfoam.org
    \\  /    A nd           | Version:  9
     \\/     M anipulation  |
\*---------------------------------------------------------------------------*/
FoamFile
{
    format      ascii;
    class       volScalarField;
    location    "115200";
    object      T_0;
}
// * * * * * * * * * * * * * * * * * * * * * * * * * * * * * * * * * * * * * //

dimensions      [0 0 0 1 0 0 0];

internalField   nonuniform List<scalar> 
100
(
393.365
392.369
391.378
390.392
389.41
388.433
387.46
386.492
385.529
384.57
383.615
382.665
381.72
380.779
379.842
378.91
377.982
377.059
376.14
375.226
374.316
373.41
372.508
371.611
370.718
369.829
368.944
368.063
367.187
366.314
365.446
364.582
363.721
362.865
362.012
361.163
360.318
359.476
358.639
357.804
356.974
356.147
355.323
354.503
353.686
352.872
352.062
351.254
350.45
349.648
348.85
348.054
347.261
346.471
345.683
344.898
344.115
343.335
342.556
341.78
341.006
340.234
339.463
338.694
337.927
337.161
336.397
335.634
334.872
334.111
333.35
332.591
331.832
331.074
330.316
329.558
328.8
328.042
327.284
326.525
325.766
325.006
324.245
323.482
322.719
321.954
321.188
320.419
319.649
318.876
318.101
317.324
316.543
315.76
314.973
314.183
313.389
312.591
311.789
310.982
)
;

boundaryField
{
    left
    {
        type            fixedGradient;
        gradient        uniform 500;
    }
    right
    {
        type            uniformFixedValue;
        uniformValue    
        {
            type            sine;
            amplitude       
            {
                type            constant;
                value           20;
            }
            frequency       1.1574e-05;
            start           0;
            level           
            {
                type            constant;
                value           293;
            }
        }
        value           uniform 310.577;
    }
    frontAndBack
    {
        type            empty;
    }
    top_bottom
    {
        type            zeroGradient;
    }
}


// ************************************************************************* //
