/*--------------------------------*- C++ -*----------------------------------*\
  =========                 |
  \\      /  F ield         | OpenFOAM: The Open Source CFD Toolbox
   \\    /   O peration     | Website:  https://openfoam.org
    \\  /    A nd           | Version:  9
     \\/     M anipulation  |
\*---------------------------------------------------------------------------*/
FoamFile
{
    format      ascii;
    class       volScalarField;
    location    "147600";
    object      ddt0(T);
}
// * * * * * * * * * * * * * * * * * * * * * * * * * * * * * * * * * * * * * //

dimensions      [0 0 -1 1 0 0 0];

internalField   nonuniform List<scalar> 
100
(
-0.000558684
-0.000558787
-0.000558991
-0.000559297
-0.000559704
-0.000560212
-0.00056082
-0.000561528
-0.000562333
-0.000563234
-0.000564232
-0.000565323
-0.000566506
-0.00056778
-0.000569142
-0.000570591
-0.000572123
-0.000573737
-0.00057543
-0.0005772
-0.000579042
-0.000580955
-0.000582935
-0.000584979
-0.000587083
-0.000589243
-0.000591457
-0.000593718
-0.000596024
-0.000598371
-0.000600753
-0.000603166
-0.000605606
-0.000608066
-0.000610543
-0.000613031
-0.000615524
-0.000618018
-0.000620505
-0.00062298
-0.000625438
-0.000627871
-0.000630274
-0.000632639
-0.00063496
-0.00063723
-0.000639443
-0.000641589
-0.000643663
-0.000645657
-0.000647563
-0.000649372
-0.000651077
-0.000652669
-0.000654141
-0.000655483
-0.000656686
-0.000657742
-0.000658641
-0.000659374
-0.000659932
-0.000660305
-0.000660482
-0.000660455
-0.000660213
-0.000659745
-0.00065904
-0.000658089
-0.000656881
-0.000655404
-0.000653646
-0.000651598
-0.000649246
-0.00064658
-0.000643587
-0.000640256
-0.000636574
-0.000632528
-0.000628107
-0.000623297
-0.000618086
-0.00061246
-0.000606406
-0.000599912
-0.000592962
-0.000585545
-0.000577645
-0.000569249
-0.000560343
-0.000550912
-0.000540942
-0.000530419
-0.000519327
-0.000507653
-0.00049538
-0.000482494
-0.000468979
-0.000454821
-0.000440004
-0.000424511
)
;

boundaryField
{
    left
    {
        type            calculated;
        value           uniform -0.000558684;
    }
    right
    {
        type            calculated;
        value           uniform -0.00041642;
    }
    frontAndBack
    {
        type            empty;
    }
    top_bottom
    {
        type            calculated;
        value           nonuniform List<scalar> 
200
(
-0.000558684
-0.000558787
-0.000558991
-0.000559297
-0.000559704
-0.000560212
-0.00056082
-0.000561528
-0.000562333
-0.000563234
-0.000564232
-0.000565323
-0.000566506
-0.00056778
-0.000569142
-0.000570591
-0.000572123
-0.000573737
-0.00057543
-0.0005772
-0.000579042
-0.000580955
-0.000582935
-0.000584979
-0.000587083
-0.000589243
-0.000591457
-0.000593718
-0.000596024
-0.000598371
-0.000600753
-0.000603166
-0.000605606
-0.000608066
-0.000610543
-0.000613031
-0.000615524
-0.000618018
-0.000620505
-0.00062298
-0.000625438
-0.000627871
-0.000630274
-0.000632639
-0.00063496
-0.00063723
-0.000639443
-0.000641589
-0.000643663
-0.000645657
-0.000647563
-0.000649372
-0.000651077
-0.000652669
-0.000654141
-0.000655483
-0.000656686
-0.000657742
-0.000658641
-0.000659374
-0.000659932
-0.000660305
-0.000660482
-0.000660455
-0.000660213
-0.000659745
-0.00065904
-0.000658089
-0.000656881
-0.000655404
-0.000653646
-0.000651598
-0.000649246
-0.00064658
-0.000643587
-0.000640256
-0.000636574
-0.000632528
-0.000628107
-0.000623297
-0.000618086
-0.00061246
-0.000606406
-0.000599912
-0.000592962
-0.000585545
-0.000577645
-0.000569249
-0.000560343
-0.000550912
-0.000540942
-0.000530419
-0.000519327
-0.000507653
-0.00049538
-0.000482494
-0.000468979
-0.000454821
-0.000440004
-0.000424511
-0.000558684
-0.000558787
-0.000558991
-0.000559297
-0.000559704
-0.000560212
-0.00056082
-0.000561528
-0.000562333
-0.000563234
-0.000564232
-0.000565323
-0.000566506
-0.00056778
-0.000569142
-0.000570591
-0.000572123
-0.000573737
-0.00057543
-0.0005772
-0.000579042
-0.000580955
-0.000582935
-0.000584979
-0.000587083
-0.000589243
-0.000591457
-0.000593718
-0.000596024
-0.000598371
-0.000600753
-0.000603166
-0.000605606
-0.000608066
-0.000610543
-0.000613031
-0.000615524
-0.000618018
-0.000620505
-0.00062298
-0.000625438
-0.000627871
-0.000630274
-0.000632639
-0.00063496
-0.00063723
-0.000639443
-0.000641589
-0.000643663
-0.000645657
-0.000647563
-0.000649372
-0.000651077
-0.000652669
-0.000654141
-0.000655483
-0.000656686
-0.000657742
-0.000658641
-0.000659374
-0.000659932
-0.000660305
-0.000660482
-0.000660455
-0.000660213
-0.000659745
-0.00065904
-0.000658089
-0.000656881
-0.000655404
-0.000653646
-0.000651598
-0.000649246
-0.00064658
-0.000643587
-0.000640256
-0.000636574
-0.000632528
-0.000628107
-0.000623297
-0.000618086
-0.00061246
-0.000606406
-0.000599912
-0.000592962
-0.000585545
-0.000577645
-0.000569249
-0.000560343
-0.000550912
-0.000540942
-0.000530419
-0.000519327
-0.000507653
-0.00049538
-0.000482494
-0.000468979
-0.000454821
-0.000440004
-0.000424511
)
;
    }
}


// ************************************************************************* //
