/*--------------------------------*- C++ -*----------------------------------*\
  =========                 |
  \\      /  F ield         | OpenFOAM: The Open Source CFD Toolbox
   \\    /   O peration     | Website:  https://openfoam.org
    \\  /    A nd           | Version:  9
     \\/     M anipulation  |
\*---------------------------------------------------------------------------*/
FoamFile
{
    format      ascii;
    class       volScalarField;
    location    "147600";
    object      gradTx;
}
// * * * * * * * * * * * * * * * * * * * * * * * * * * * * * * * * * * * * * //

dimensions      [0 -1 0 1 0 0 0];

internalField   nonuniform List<scalar> 
100
(
-500.972
-502.916
-504.861
-506.806
-508.753
-510.701
-512.651
-514.603
-516.557
-518.515
-520.475
-522.438
-524.405
-526.376
-528.351
-530.331
-532.315
-534.304
-536.299
-538.298
-540.304
-542.315
-544.333
-546.357
-548.387
-550.425
-552.468
-554.519
-556.577
-558.643
-560.715
-562.795
-564.883
-566.978
-569.08
-571.19
-573.308
-575.434
-577.566
-579.707
-581.855
-584.01
-586.172
-588.341
-590.517
-592.7
-594.889
-597.084
-599.285
-601.492
-603.704
-605.921
-608.143
-610.369
-612.599
-614.832
-617.067
-619.305
-621.545
-623.786
-626.027
-628.268
-630.508
-632.747
-634.983
-637.217
-639.446
-641.671
-643.889
-646.102
-648.306
-650.502
-652.689
-654.864
-657.028
-659.178
-661.315
-663.435
-665.539
-667.625
-669.691
-671.736
-673.758
-675.757
-677.729
-679.675
-681.592
-683.478
-685.331
-687.151
-688.934
-690.68
-692.385
-694.049
-695.669
-697.242
-698.767
-700.242
-701.664
-703.032
)
;

boundaryField
{
    left
    {
        type            calculated;
        value           uniform -500;
    }
    right
    {
        type            calculated;
        value           uniform -703.701;
    }
    frontAndBack
    {
        type            empty;
    }
    top_bottom
    {
        type            calculated;
        value           nonuniform List<scalar> 
200
(
-500.972
-502.916
-504.861
-506.806
-508.753
-510.701
-512.651
-514.603
-516.557
-518.515
-520.475
-522.438
-524.405
-526.376
-528.351
-530.331
-532.315
-534.304
-536.299
-538.298
-540.304
-542.315
-544.333
-546.357
-548.387
-550.425
-552.468
-554.519
-556.577
-558.643
-560.715
-562.795
-564.883
-566.978
-569.08
-571.19
-573.308
-575.434
-577.566
-579.707
-581.855
-584.01
-586.172
-588.341
-590.517
-592.7
-594.889
-597.084
-599.285
-601.492
-603.704
-605.921
-608.143
-610.369
-612.599
-614.832
-617.067
-619.305
-621.545
-623.786
-626.027
-628.268
-630.508
-632.747
-634.983
-637.217
-639.446
-641.671
-643.889
-646.102
-648.306
-650.502
-652.689
-654.864
-657.028
-659.178
-661.315
-663.435
-665.539
-667.625
-669.691
-671.736
-673.758
-675.757
-677.729
-679.675
-681.592
-683.478
-685.331
-687.151
-688.934
-690.68
-692.385
-694.049
-695.669
-697.242
-698.767
-700.242
-701.664
-703.032
-500.972
-502.916
-504.861
-506.806
-508.753
-510.701
-512.651
-514.603
-516.557
-518.515
-520.475
-522.438
-524.405
-526.376
-528.351
-530.331
-532.315
-534.304
-536.299
-538.298
-540.304
-542.315
-544.333
-546.357
-548.387
-550.425
-552.468
-554.519
-556.577
-558.643
-560.715
-562.795
-564.883
-566.978
-569.08
-571.19
-573.308
-575.434
-577.566
-579.707
-581.855
-584.01
-586.172
-588.341
-590.517
-592.7
-594.889
-597.084
-599.285
-601.492
-603.704
-605.921
-608.143
-610.369
-612.599
-614.832
-617.067
-619.305
-621.545
-623.786
-626.027
-628.268
-630.508
-632.747
-634.983
-637.217
-639.446
-641.671
-643.889
-646.102
-648.306
-650.502
-652.689
-654.864
-657.028
-659.178
-661.315
-663.435
-665.539
-667.625
-669.691
-671.736
-673.758
-675.757
-677.729
-679.675
-681.592
-683.478
-685.331
-687.151
-688.934
-690.68
-692.385
-694.049
-695.669
-697.242
-698.767
-700.242
-701.664
-703.032
)
;
    }
}


// ************************************************************************* //
