/*--------------------------------*- C++ -*----------------------------------*\
  =========                 |
  \\      /  F ield         | OpenFOAM: The Open Source CFD Toolbox
   \\    /   O peration     | Website:  https://openfoam.org
    \\  /    A nd           | Version:  9
     \\/     M anipulation  |
\*---------------------------------------------------------------------------*/
FoamFile
{
    format      ascii;
    class       volScalarField;
    location    "147600";
    object      T;
}
// * * * * * * * * * * * * * * * * * * * * * * * * * * * * * * * * * * * * * //

dimensions      [0 0 0 1 0 0 0];

internalField   nonuniform List<scalar> 
100
(
393.843
392.839
391.831
390.819
389.804
388.784
387.761
386.734
385.703
384.668
383.629
382.586
381.539
380.488
379.433
378.375
377.312
376.245
375.175
374.1
373.022
371.939
370.852
369.762
368.667
367.568
366.465
365.358
364.247
363.132
362.013
360.889
359.761
358.629
357.493
356.353
355.209
354.06
352.907
351.75
350.588
349.422
348.252
347.078
345.899
344.715
343.528
342.336
341.14
339.939
338.734
337.524
336.31
335.091
333.868
332.641
331.409
330.173
328.932
327.687
326.437
325.182
323.924
322.66
321.393
320.12
318.844
317.563
316.277
314.987
313.693
312.394
311.091
309.783
308.471
307.155
305.835
304.51
303.181
301.848
300.51
299.169
297.823
296.474
295.12
293.763
292.402
291.037
289.668
288.295
286.919
285.539
284.156
282.77
281.38
279.987
278.591
277.192
275.79
274.386
)
;

boundaryField
{
    left
    {
        type            fixedGradient;
        gradient        uniform 500;
    }
    right
    {
        type            uniformFixedValue;
        uniformValue    
        {
            type            sine;
            amplitude       
            {
                type            constant;
                value           20;
            }
            frequency       1.1574e-05;
            start           0;
            level           
            {
                type            constant;
                value           293;
            }
        }
        value           uniform 273.682;
    }
    frontAndBack
    {
        type            empty;
    }
    top_bottom
    {
        type            zeroGradient;
    }
}


// ************************************************************************* //
