/*--------------------------------*- C++ -*----------------------------------*\
  =========                 |
  \\      /  F ield         | OpenFOAM: The Open Source CFD Toolbox
   \\    /   O peration     | Website:  https://openfoam.org
    \\  /    A nd           | Version:  9
     \\/     M anipulation  |
\*---------------------------------------------------------------------------*/
FoamFile
{
    format      ascii;
    class       volScalarField;
    location    "147600";
    object      T_0;
}
// * * * * * * * * * * * * * * * * * * * * * * * * * * * * * * * * * * * * * //

dimensions      [0 0 0 1 0 0 0];

internalField   nonuniform List<scalar> 
100
(
394.045
393.041
392.033
391.022
390.006
388.987
387.964
386.937
385.906
384.871
383.833
382.79
381.744
380.693
379.639
378.581
377.519
376.453
375.383
374.309
373.231
372.149
371.063
369.973
368.879
367.781
366.679
365.572
364.462
363.348
362.229
361.106
359.98
358.848
357.713
356.574
355.43
354.282
353.13
351.974
350.813
349.648
348.478
347.305
346.127
344.944
343.757
342.566
341.37
340.17
338.966
337.757
336.543
335.325
334.102
332.875
331.644
330.408
329.167
327.922
326.672
325.418
324.159
322.896
321.628
320.355
319.078
317.797
316.511
315.22
313.925
312.625
311.321
310.012
308.699
307.382
306.06
304.733
303.403
302.068
300.728
299.385
298.037
296.685
295.329
293.968
292.604
291.236
289.864
288.488
287.108
285.724
284.337
282.946
281.552
280.154
278.753
277.349
275.941
274.531
)
;

boundaryField
{
    left
    {
        type            fixedGradient;
        gradient        uniform 500;
    }
    right
    {
        type            uniformFixedValue;
        uniformValue    
        {
            type            sine;
            amplitude       
            {
                type            constant;
                value           20;
            }
            frequency       1.1574e-05;
            start           0;
            level           
            {
                type            constant;
                value           293;
            }
        }
        value           uniform 273.824;
    }
    frontAndBack
    {
        type            empty;
    }
    top_bottom
    {
        type            zeroGradient;
    }
}


// ************************************************************************* //
