/*--------------------------------*- C++ -*----------------------------------*\
  =========                 |
  \\      /  F ield         | OpenFOAM: The Open Source CFD Toolbox
   \\    /   O peration     | Website:  https://openfoam.org
    \\  /    A nd           | Version:  9
     \\/     M anipulation  |
\*---------------------------------------------------------------------------*/
FoamFile
{
    format      ascii;
    class       volScalarField;
    location    "158400";
    object      ddt0(T);
}
// * * * * * * * * * * * * * * * * * * * * * * * * * * * * * * * * * * * * * //

dimensions      [0 0 -1 1 0 0 0];

internalField   nonuniform List<scalar> 
100
(
-0.000526937
-0.000526799
-0.000526522
-0.000526106
-0.000525551
-0.000524856
-0.000524021
-0.000523044
-0.000521925
-0.000520663
-0.000519256
-0.000517702
-0.000516001
-0.000514151
-0.00051215
-0.000509996
-0.000507686
-0.000505219
-0.000502592
-0.000499804
-0.00049685
-0.000493728
-0.000490437
-0.000486971
-0.000483329
-0.000479507
-0.000475502
-0.00047131
-0.000466927
-0.00046235
-0.000457574
-0.000452597
-0.000447412
-0.000442017
-0.000436407
-0.000430577
-0.000424523
-0.00041824
-0.000411723
-0.000404966
-0.000397966
-0.000390717
-0.000383213
-0.000375449
-0.00036742
-0.00035912
-0.000350543
-0.000341683
-0.000332535
-0.000323092
-0.000313349
-0.000303299
-0.000292936
-0.000282254
-0.000271246
-0.000259906
-0.000248227
-0.000236203
-0.000223827
-0.000211091
-0.00019799
-0.000184516
-0.000170663
-0.000156423
-0.000141789
-0.000126755
-0.000111313
-9.54555e-05
-7.9176e-05
-6.24671e-05
-4.53214e-05
-2.77318e-05
-9.69083e-06
8.80869e-06
2.77741e-05
4.72127e-05
6.71318e-05
8.75387e-05
0.000108441
0.000129845
0.000151759
0.00017419
0.000197145
0.000220631
0.000244655
0.000269224
0.000294346
0.000320027
0.000346274
0.000373094
0.000400493
0.000428478
0.000457056
0.000486233
0.000516015
0.000546408
0.000577419
0.000609054
0.000641317
0.000674215
)
;

boundaryField
{
    left
    {
        type            calculated;
        value           uniform -0.000526937;
    }
    right
    {
        type            calculated;
        value           uniform 0.000690984;
    }
    frontAndBack
    {
        type            empty;
    }
    top_bottom
    {
        type            calculated;
        value           nonuniform List<scalar> 
200
(
-0.000526937
-0.000526799
-0.000526522
-0.000526106
-0.000525551
-0.000524856
-0.000524021
-0.000523044
-0.000521925
-0.000520663
-0.000519256
-0.000517702
-0.000516001
-0.000514151
-0.00051215
-0.000509996
-0.000507686
-0.000505219
-0.000502592
-0.000499804
-0.00049685
-0.000493728
-0.000490437
-0.000486971
-0.000483329
-0.000479507
-0.000475502
-0.00047131
-0.000466927
-0.00046235
-0.000457574
-0.000452597
-0.000447412
-0.000442017
-0.000436407
-0.000430577
-0.000424523
-0.00041824
-0.000411723
-0.000404966
-0.000397966
-0.000390717
-0.000383213
-0.000375449
-0.00036742
-0.00035912
-0.000350543
-0.000341683
-0.000332535
-0.000323092
-0.000313349
-0.000303299
-0.000292936
-0.000282254
-0.000271246
-0.000259906
-0.000248227
-0.000236203
-0.000223827
-0.000211091
-0.00019799
-0.000184516
-0.000170663
-0.000156423
-0.000141789
-0.000126755
-0.000111313
-9.54555e-05
-7.9176e-05
-6.24671e-05
-4.53214e-05
-2.77318e-05
-9.69083e-06
8.80869e-06
2.77741e-05
4.72127e-05
6.71318e-05
8.75387e-05
0.000108441
0.000129845
0.000151759
0.00017419
0.000197145
0.000220631
0.000244655
0.000269224
0.000294346
0.000320027
0.000346274
0.000373094
0.000400493
0.000428478
0.000457056
0.000486233
0.000516015
0.000546408
0.000577419
0.000609054
0.000641317
0.000674215
-0.000526937
-0.000526799
-0.000526522
-0.000526106
-0.000525551
-0.000524856
-0.000524021
-0.000523044
-0.000521925
-0.000520663
-0.000519256
-0.000517702
-0.000516001
-0.000514151
-0.00051215
-0.000509996
-0.000507686
-0.000505219
-0.000502592
-0.000499804
-0.00049685
-0.000493728
-0.000490437
-0.000486971
-0.000483329
-0.000479507
-0.000475502
-0.00047131
-0.000466927
-0.00046235
-0.000457574
-0.000452597
-0.000447412
-0.000442017
-0.000436407
-0.000430577
-0.000424523
-0.00041824
-0.000411723
-0.000404966
-0.000397966
-0.000390717
-0.000383213
-0.000375449
-0.00036742
-0.00035912
-0.000350543
-0.000341683
-0.000332535
-0.000323092
-0.000313349
-0.000303299
-0.000292936
-0.000282254
-0.000271246
-0.000259906
-0.000248227
-0.000236203
-0.000223827
-0.000211091
-0.00019799
-0.000184516
-0.000170663
-0.000156423
-0.000141789
-0.000126755
-0.000111313
-9.54555e-05
-7.9176e-05
-6.24671e-05
-4.53214e-05
-2.77318e-05
-9.69083e-06
8.80869e-06
2.77741e-05
4.72127e-05
6.71318e-05
8.75387e-05
0.000108441
0.000129845
0.000151759
0.00017419
0.000197145
0.000220631
0.000244655
0.000269224
0.000294346
0.000320027
0.000346274
0.000373094
0.000400493
0.000428478
0.000457056
0.000486233
0.000516015
0.000546408
0.000577419
0.000609054
0.000641317
0.000674215
)
;
    }
}


// ************************************************************************* //
