/*--------------------------------*- C++ -*----------------------------------*\
  =========                 |
  \\      /  F ield         | OpenFOAM: The Open Source CFD Toolbox
   \\    /   O peration     | Website:  https://openfoam.org
    \\  /    A nd           | Version:  9
     \\/     M anipulation  |
\*---------------------------------------------------------------------------*/
FoamFile
{
    format      ascii;
    class       volScalarField;
    location    "158400";
    object      gradTx;
}
// * * * * * * * * * * * * * * * * * * * * * * * * * * * * * * * * * * * * * //

dimensions      [0 -1 0 1 0 0 0];

internalField   nonuniform List<scalar> 
100
(
-500.896
-502.687
-504.477
-506.266
-508.054
-509.839
-511.621
-513.4
-515.175
-516.946
-518.712
-520.473
-522.227
-523.976
-525.717
-527.451
-529.177
-530.894
-532.602
-534.3
-535.987
-537.664
-539.329
-540.982
-542.622
-544.249
-545.862
-547.459
-549.042
-550.608
-552.157
-553.689
-555.203
-556.697
-558.172
-559.626
-561.059
-562.47
-563.858
-565.222
-566.561
-567.875
-569.162
-570.423
-571.655
-572.857
-574.03
-575.172
-576.281
-577.358
-578.4
-579.407
-580.377
-581.311
-582.205
-583.06
-583.874
-584.646
-585.375
-586.06
-586.698
-587.29
-587.833
-588.326
-588.769
-589.159
-589.495
-589.776
-590
-590.167
-590.273
-590.318
-590.301
-590.219
-590.072
-589.857
-589.572
-589.217
-588.79
-588.288
-587.71
-587.055
-586.32
-585.504
-584.604
-583.62
-582.549
-581.389
-580.138
-578.794
-577.356
-575.821
-574.188
-572.454
-570.617
-568.676
-566.627
-564.469
-562.201
-559.819
)
;

boundaryField
{
    left
    {
        type            calculated;
        value           uniform -500;
    }
    right
    {
        type            calculated;
        value           uniform -558.599;
    }
    frontAndBack
    {
        type            empty;
    }
    top_bottom
    {
        type            calculated;
        value           nonuniform List<scalar> 
200
(
-500.896
-502.687
-504.477
-506.266
-508.054
-509.839
-511.621
-513.4
-515.175
-516.946
-518.712
-520.473
-522.227
-523.976
-525.717
-527.451
-529.177
-530.894
-532.602
-534.3
-535.987
-537.664
-539.329
-540.982
-542.622
-544.249
-545.862
-547.459
-549.042
-550.608
-552.157
-553.689
-555.203
-556.697
-558.172
-559.626
-561.059
-562.47
-563.858
-565.222
-566.561
-567.875
-569.162
-570.423
-571.655
-572.857
-574.03
-575.172
-576.281
-577.358
-578.4
-579.407
-580.377
-581.311
-582.205
-583.06
-583.874
-584.646
-585.375
-586.06
-586.698
-587.29
-587.833
-588.326
-588.769
-589.159
-589.495
-589.776
-590
-590.167
-590.273
-590.318
-590.301
-590.219
-590.072
-589.857
-589.572
-589.217
-588.79
-588.288
-587.71
-587.055
-586.32
-585.504
-584.604
-583.62
-582.549
-581.389
-580.138
-578.794
-577.356
-575.821
-574.188
-572.454
-570.617
-568.676
-566.627
-564.469
-562.201
-559.819
-500.896
-502.687
-504.477
-506.266
-508.054
-509.839
-511.621
-513.4
-515.175
-516.946
-518.712
-520.473
-522.227
-523.976
-525.717
-527.451
-529.177
-530.894
-532.602
-534.3
-535.987
-537.664
-539.329
-540.982
-542.622
-544.249
-545.862
-547.459
-549.042
-550.608
-552.157
-553.689
-555.203
-556.697
-558.172
-559.626
-561.059
-562.47
-563.858
-565.222
-566.561
-567.875
-569.162
-570.423
-571.655
-572.857
-574.03
-575.172
-576.281
-577.358
-578.4
-579.407
-580.377
-581.311
-582.205
-583.06
-583.874
-584.646
-585.375
-586.06
-586.698
-587.29
-587.833
-588.326
-588.769
-589.159
-589.495
-589.776
-590
-590.167
-590.273
-590.318
-590.301
-590.219
-590.072
-589.857
-589.572
-589.217
-588.79
-588.288
-587.71
-587.055
-586.32
-585.504
-584.604
-583.62
-582.549
-581.389
-580.138
-578.794
-577.356
-575.821
-574.188
-572.454
-570.617
-568.676
-566.627
-564.469
-562.201
-559.819
)
;
    }
}


// ************************************************************************* //
