/*--------------------------------*- C++ -*----------------------------------*\
  =========                 |
  \\      /  F ield         | OpenFOAM: The Open Source CFD Toolbox
   \\    /   O peration     | Website:  https://openfoam.org
    \\  /    A nd           | Version:  9
     \\/     M anipulation  |
\*---------------------------------------------------------------------------*/
FoamFile
{
    format      ascii;
    class       volScalarField;
    location    "158400";
    object      T;
}
// * * * * * * * * * * * * * * * * * * * * * * * * * * * * * * * * * * * * * //

dimensions      [0 0 0 1 0 0 0];

internalField   nonuniform List<scalar> 
100
(
387.653
386.65
385.643
384.632
383.617
382.6
381.578
380.553
379.525
378.492
377.457
376.418
375.375
374.329
373.279
372.226
371.169
370.109
369.046
367.979
366.908
365.835
364.758
363.677
362.594
361.507
360.417
359.323
358.227
357.127
356.025
354.919
353.81
352.698
351.583
350.465
349.344
348.221
347.095
345.965
344.834
343.699
342.562
341.423
340.281
339.136
337.989
336.84
335.688
334.535
333.379
332.221
331.061
329.9
328.736
327.571
326.404
325.235
324.065
322.894
321.721
320.547
319.372
318.196
317.019
315.841
314.662
313.483
312.303
311.123
309.942
308.762
307.581
306.4
305.22
304.04
302.861
301.682
300.504
299.327
298.151
296.976
295.802
294.63
293.46
292.292
291.126
289.962
288.8
287.641
286.485
285.332
284.182
283.035
281.892
280.753
279.617
278.486
277.359
276.237
)
;

boundaryField
{
    left
    {
        type            fixedGradient;
        gradient        uniform 500;
    }
    right
    {
        type            uniformFixedValue;
        uniformValue    
        {
            type            sine;
            amplitude       
            {
                type            constant;
                value           20;
            }
            frequency       1.1574e-05;
            start           0;
            level           
            {
                type            constant;
                value           293;
            }
        }
        value           uniform 275.679;
    }
    frontAndBack
    {
        type            empty;
    }
    top_bottom
    {
        type            zeroGradient;
    }
}


// ************************************************************************* //
