/*--------------------------------*- C++ -*----------------------------------*\
  =========                 |
  \\      /  F ield         | OpenFOAM: The Open Source CFD Toolbox
   \\    /   O peration     | Website:  https://openfoam.org
    \\  /    A nd           | Version:  9
     \\/     M anipulation  |
\*---------------------------------------------------------------------------*/
FoamFile
{
    format      ascii;
    class       volScalarField;
    location    "158400";
    object      T_0;
}
// * * * * * * * * * * * * * * * * * * * * * * * * * * * * * * * * * * * * * //

dimensions      [0 0 0 1 0 0 0];

internalField   nonuniform List<scalar> 
100
(
387.841
386.838
385.831
384.82
383.805
382.787
381.765
380.74
379.711
378.678
377.642
376.602
375.559
374.512
373.462
372.408
371.35
370.289
369.225
368.157
367.085
366.011
364.932
363.851
362.766
361.677
360.586
359.491
358.393
357.291
356.187
355.079
353.968
352.855
351.738
350.618
349.495
348.369
347.24
346.109
344.974
343.837
342.697
341.555
340.41
339.262
338.112
336.96
335.805
334.648
333.488
332.327
331.163
329.998
328.83
327.661
326.489
325.316
324.142
322.966
321.788
320.609
319.429
318.248
317.065
315.882
314.697
313.512
312.327
311.14
309.954
308.767
307.579
306.392
305.205
304.018
302.831
301.645
300.459
299.274
298.09
296.907
295.726
294.545
293.366
292.189
291.014
289.84
288.669
287.501
286.334
285.171
284.011
282.853
281.7
280.549
279.403
278.26
277.122
275.988
)
;

boundaryField
{
    left
    {
        type            fixedGradient;
        gradient        uniform 500;
    }
    right
    {
        type            uniformFixedValue;
        uniformValue    
        {
            type            sine;
            amplitude       
            {
                type            constant;
                value           20;
            }
            frequency       1.1574e-05;
            start           0;
            level           
            {
                type            constant;
                value           293;
            }
        }
        value           uniform 275.423;
    }
    frontAndBack
    {
        type            empty;
    }
    top_bottom
    {
        type            zeroGradient;
    }
}


// ************************************************************************* //
