/*--------------------------------*- C++ -*----------------------------------*\
  =========                 |
  \\      /  F ield         | OpenFOAM: The Open Source CFD Toolbox
   \\    /   O peration     | Website:  https://openfoam.org
    \\  /    A nd           | Version:  9
     \\/     M anipulation  |
\*---------------------------------------------------------------------------*/
FoamFile
{
    format      ascii;
    class       volScalarField;
    location    "14400";
    object      ddt0(T);
}
// * * * * * * * * * * * * * * * * * * * * * * * * * * * * * * * * * * * * * //

dimensions      [0 0 -1 1 0 0 0];

internalField   nonuniform List<scalar> 
100
(
0.00452354
0.00452293
0.00452171
0.00451987
0.00451742
0.00451435
0.00451066
0.00450635
0.00450142
0.00449586
0.00448968
0.00448286
0.0044754
0.0044673
0.00445855
0.00444915
0.0044391
0.00442838
0.00441699
0.00440492
0.00439218
0.00437875
0.00436462
0.00434979
0.00433425
0.00431799
0.00430101
0.0042833
0.00426485
0.00424565
0.0042257
0.00420499
0.00418351
0.00416124
0.0041382
0.00411436
0.00408972
0.00406427
0.00403801
0.00401092
0.003983
0.00395425
0.00392466
0.00389421
0.00386292
0.00383076
0.00379773
0.00376383
0.00372905
0.00369339
0.00365685
0.00361941
0.00358109
0.00354186
0.00350174
0.00346071
0.00341878
0.00337594
0.0033322
0.00328755
0.00324199
0.00319552
0.00314815
0.00309987
0.00305068
0.0030006
0.00294961
0.00289773
0.00284495
0.00279129
0.00273674
0.00268131
0.002625
0.00256782
0.00250978
0.00245088
0.00239113
0.00233053
0.0022691
0.00220684
0.00214376
0.00207986
0.00201516
0.00194967
0.00188339
0.00181633
0.00174851
0.00167993
0.0016106
0.00154054
0.00146974
0.00139824
0.00132602
0.00125311
0.00117951
0.00110524
0.0010303
0.000954699
0.000878458
0.000801673
)
;

boundaryField
{
    left
    {
        type            calculated;
        value           uniform 0.00452354;
    }
    right
    {
        type            calculated;
        value           uniform 0.000762849;
    }
    frontAndBack
    {
        type            empty;
    }
    top_bottom
    {
        type            calculated;
        value           nonuniform List<scalar> 
200
(
0.00452354
0.00452293
0.00452171
0.00451987
0.00451742
0.00451435
0.00451066
0.00450635
0.00450142
0.00449586
0.00448968
0.00448286
0.0044754
0.0044673
0.00445855
0.00444915
0.0044391
0.00442838
0.00441699
0.00440492
0.00439218
0.00437875
0.00436462
0.00434979
0.00433425
0.00431799
0.00430101
0.0042833
0.00426485
0.00424565
0.0042257
0.00420499
0.00418351
0.00416124
0.0041382
0.00411436
0.00408972
0.00406427
0.00403801
0.00401092
0.003983
0.00395425
0.00392466
0.00389421
0.00386292
0.00383076
0.00379773
0.00376383
0.00372905
0.00369339
0.00365685
0.00361941
0.00358109
0.00354186
0.00350174
0.00346071
0.00341878
0.00337594
0.0033322
0.00328755
0.00324199
0.00319552
0.00314815
0.00309987
0.00305068
0.0030006
0.00294961
0.00289773
0.00284495
0.00279129
0.00273674
0.00268131
0.002625
0.00256782
0.00250978
0.00245088
0.00239113
0.00233053
0.0022691
0.00220684
0.00214376
0.00207986
0.00201516
0.00194967
0.00188339
0.00181633
0.00174851
0.00167993
0.0016106
0.00154054
0.00146974
0.00139824
0.00132602
0.00125311
0.00117951
0.00110524
0.0010303
0.000954699
0.000878458
0.000801673
0.00452354
0.00452293
0.00452171
0.00451987
0.00451742
0.00451435
0.00451066
0.00450635
0.00450142
0.00449586
0.00448968
0.00448286
0.0044754
0.0044673
0.00445855
0.00444915
0.0044391
0.00442838
0.00441699
0.00440492
0.00439218
0.00437875
0.00436462
0.00434979
0.00433425
0.00431799
0.00430101
0.0042833
0.00426485
0.00424565
0.0042257
0.00420499
0.00418351
0.00416124
0.0041382
0.00411436
0.00408972
0.00406427
0.00403801
0.00401092
0.003983
0.00395425
0.00392466
0.00389421
0.00386292
0.00383076
0.00379773
0.00376383
0.00372905
0.00369339
0.00365685
0.00361941
0.00358109
0.00354186
0.00350174
0.00346071
0.00341878
0.00337594
0.0033322
0.00328755
0.00324199
0.00319552
0.00314815
0.00309987
0.00305068
0.0030006
0.00294961
0.00289773
0.00284495
0.00279129
0.00273674
0.00268131
0.002625
0.00256782
0.00250978
0.00245088
0.00239113
0.00233053
0.0022691
0.00220684
0.00214376
0.00207986
0.00201516
0.00194967
0.00188339
0.00181633
0.00174851
0.00167993
0.0016106
0.00154054
0.00146974
0.00139824
0.00132602
0.00125311
0.00117951
0.00110524
0.0010303
0.000954699
0.000878458
0.000801673
)
;
    }
}


// ************************************************************************* //
