/*--------------------------------*- C++ -*----------------------------------*\
  =========                 |
  \\      /  F ield         | OpenFOAM: The Open Source CFD Toolbox
   \\    /   O peration     | Website:  https://openfoam.org
    \\  /    A nd           | Version:  9
     \\/     M anipulation  |
\*---------------------------------------------------------------------------*/
FoamFile
{
    format      ascii;
    class       volScalarField;
    location    "14400";
    object      gradTx;
}
// * * * * * * * * * * * * * * * * * * * * * * * * * * * * * * * * * * * * * //

dimensions      [0 -1 0 1 0 0 0];

internalField   nonuniform List<scalar> 
100
(
-492.257
-476.772
-461.29
-445.814
-430.345
-414.886
-399.439
-384.006
-368.59
-353.192
-337.815
-322.462
-307.133
-291.832
-276.561
-261.322
-246.118
-230.951
-215.822
-200.735
-185.692
-170.695
-155.747
-140.85
-126.007
-111.219
-96.4902
-81.8224
-67.2182
-52.6801
-38.2109
-23.813
-9.48924
4.75786
18.9256
33.0112
47.012
60.9252
74.7481
88.4778
102.112
115.646
129.08
142.408
155.63
168.741
181.738
194.62
207.382
220.022
232.537
244.923
257.179
269.3
281.284
293.128
304.828
316.383
327.787
339.04
350.136
361.075
371.851
382.463
392.907
403.18
413.28
423.203
432.946
442.506
451.88
461.066
470.059
478.859
487.46
495.861
504.058
512.05
519.832
527.402
534.757
541.895
548.813
555.508
561.977
568.218
574.228
580.004
585.545
590.846
595.907
600.724
605.295
609.617
613.688
617.507
621.069
624.374
627.419
630.201
)
;

boundaryField
{
    left
    {
        type            calculated;
        value           uniform -500;
    }
    right
    {
        type            calculated;
        value           uniform 631.526;
    }
    frontAndBack
    {
        type            empty;
    }
    top_bottom
    {
        type            calculated;
        value           nonuniform List<scalar> 
200
(
-492.257
-476.772
-461.29
-445.814
-430.345
-414.886
-399.439
-384.006
-368.59
-353.192
-337.815
-322.462
-307.133
-291.832
-276.561
-261.322
-246.118
-230.951
-215.822
-200.735
-185.692
-170.695
-155.747
-140.85
-126.007
-111.219
-96.4902
-81.8224
-67.2182
-52.6801
-38.2109
-23.813
-9.48924
4.75786
18.9256
33.0112
47.012
60.9252
74.7481
88.4778
102.112
115.646
129.08
142.408
155.63
168.741
181.738
194.62
207.382
220.022
232.537
244.923
257.179
269.3
281.284
293.128
304.828
316.383
327.787
339.04
350.136
361.075
371.851
382.463
392.907
403.18
413.28
423.203
432.946
442.506
451.88
461.066
470.059
478.859
487.46
495.861
504.058
512.05
519.832
527.402
534.757
541.895
548.813
555.508
561.977
568.218
574.228
580.004
585.545
590.846
595.907
600.724
605.295
609.617
613.688
617.507
621.069
624.374
627.419
630.201
-492.257
-476.772
-461.29
-445.814
-430.345
-414.886
-399.439
-384.006
-368.59
-353.192
-337.815
-322.462
-307.133
-291.832
-276.561
-261.322
-246.118
-230.951
-215.822
-200.735
-185.692
-170.695
-155.747
-140.85
-126.007
-111.219
-96.4902
-81.8224
-67.2182
-52.6801
-38.2109
-23.813
-9.48924
4.75786
18.9256
33.0112
47.012
60.9252
74.7481
88.4778
102.112
115.646
129.08
142.408
155.63
168.741
181.738
194.62
207.382
220.022
232.537
244.923
257.179
269.3
281.284
293.128
304.828
316.383
327.787
339.04
350.136
361.075
371.851
382.463
392.907
403.18
413.28
423.203
432.946
442.506
451.88
461.066
470.059
478.859
487.46
495.861
504.058
512.05
519.832
527.402
534.757
541.895
548.813
555.508
561.977
568.218
574.228
580.004
585.545
590.846
595.907
600.724
605.295
609.617
613.688
617.507
621.069
624.374
627.419
630.201
)
;
    }
}


// ************************************************************************* //
