/*--------------------------------*- C++ -*----------------------------------*\
  =========                 |
  \\      /  F ield         | OpenFOAM: The Open Source CFD Toolbox
   \\    /   O peration     | Website:  https://openfoam.org
    \\  /    A nd           | Version:  9
     \\/     M anipulation  |
\*---------------------------------------------------------------------------*/
FoamFile
{
    format      ascii;
    class       volScalarField;
    location    "14400";
    object      T;
}
// * * * * * * * * * * * * * * * * * * * * * * * * * * * * * * * * * * * * * //

dimensions      [0 0 0 1 0 0 0];

internalField   nonuniform List<scalar> 
100
(
275.212
274.243
273.305
272.398
271.522
270.677
269.863
269.079
268.327
267.605
266.914
266.253
265.624
265.025
264.457
263.919
263.411
262.934
262.487
262.071
261.685
261.328
261.002
260.705
260.438
260.201
259.993
259.815
259.666
259.546
259.455
259.393
259.36
259.356
259.379
259.431
259.511
259.619
259.755
259.918
260.109
260.327
260.571
260.843
261.141
261.466
261.816
262.192
262.595
263.022
263.475
263.952
264.454
264.981
265.532
266.106
266.704
267.325
267.97
268.636
269.326
270.037
270.77
271.524
272.3
273.096
273.913
274.749
275.605
276.481
277.375
278.288
279.22
280.169
281.135
282.119
283.119
284.135
285.167
286.214
287.276
288.353
289.444
290.548
291.666
292.796
293.939
295.093
296.259
297.435
298.622
299.819
301.025
302.24
303.464
304.695
305.934
307.179
308.431
309.689
)
;

boundaryField
{
    left
    {
        type            fixedGradient;
        gradient        uniform 500;
    }
    right
    {
        type            uniformFixedValue;
        uniformValue    
        {
            type            sine;
            amplitude       
            {
                type            constant;
                value           20;
            }
            frequency       1.1574e-05;
            start           0;
            level           
            {
                type            constant;
                value           293;
            }
        }
        value           uniform 310.32;
    }
    frontAndBack
    {
        type            empty;
    }
    top_bottom
    {
        type            zeroGradient;
    }
}


// ************************************************************************* //
