/*--------------------------------*- C++ -*----------------------------------*\
  =========                 |
  \\      /  F ield         | OpenFOAM: The Open Source CFD Toolbox
   \\    /   O peration     | Website:  https://openfoam.org
    \\  /    A nd           | Version:  9
     \\/     M anipulation  |
\*---------------------------------------------------------------------------*/
FoamFile
{
    format      ascii;
    class       volScalarField;
    location    "14400";
    object      T_0;
}
// * * * * * * * * * * * * * * * * * * * * * * * * * * * * * * * * * * * * * //

dimensions      [0 0 0 1 0 0 0];

internalField   nonuniform List<scalar> 
100
(
273.591
272.622
271.684
270.778
269.903
269.059
268.246
267.464
266.713
265.993
265.305
264.647
264.02
263.424
262.859
262.324
261.821
261.347
260.905
260.493
260.111
259.76
259.438
259.147
258.886
258.655
258.453
258.281
258.139
258.026
257.943
257.888
257.863
257.866
257.898
257.959
258.048
258.165
258.31
258.483
258.684
258.912
259.168
259.45
259.76
260.096
260.458
260.847
261.262
261.702
262.168
262.659
263.175
263.716
264.281
264.87
265.483
266.12
266.78
267.463
268.169
268.897
269.647
270.418
271.211
272.026
272.861
273.716
274.591
275.486
276.4
277.333
278.284
279.254
280.241
281.246
282.267
283.305
284.359
285.429
286.514
287.613
288.727
289.855
290.997
292.151
293.318
294.497
295.687
296.889
298.101
299.323
300.556
301.797
303.046
304.304
305.57
306.843
308.122
309.407
)
;

boundaryField
{
    left
    {
        type            fixedGradient;
        gradient        uniform 500;
    }
    right
    {
        type            uniformFixedValue;
        uniformValue    
        {
            type            sine;
            amplitude       
            {
                type            constant;
                value           20;
            }
            frequency       1.1574e-05;
            start           0;
            level           
            {
                type            constant;
                value           293;
            }
        }
        value           uniform 310.053;
    }
    frontAndBack
    {
        type            empty;
    }
    top_bottom
    {
        type            zeroGradient;
    }
}


// ************************************************************************* //
