/*--------------------------------*- C++ -*----------------------------------*\
  =========                 |
  \\      /  F ield         | OpenFOAM: The Open Source CFD Toolbox
   \\    /   O peration     | Website:  https://openfoam.org
    \\  /    A nd           | Version:  9
     \\/     M anipulation  |
\*---------------------------------------------------------------------------*/
FoamFile
{
    format      ascii;
    class       volScalarField;
    location    "129600";
    object      ddt0(T);
}
// * * * * * * * * * * * * * * * * * * * * * * * * * * * * * * * * * * * * * //

dimensions      [0 0 -1 1 0 0 0];

internalField   nonuniform List<scalar> 
100
(
9.20107e-05
9.16825e-05
9.10261e-05
9.00415e-05
8.87287e-05
8.70877e-05
8.51185e-05
8.2821e-05
8.01953e-05
7.72412e-05
7.39589e-05
7.03483e-05
6.64093e-05
6.2142e-05
5.75463e-05
5.26222e-05
4.73698e-05
4.17891e-05
3.588e-05
2.96425e-05
2.30768e-05
1.61828e-05
8.96068e-06
1.41039e-06
-6.46793e-06
-1.46742e-05
-2.32082e-05
-3.20699e-05
-4.12591e-05
-5.07755e-05
-6.0619e-05
-7.07893e-05
-8.12861e-05
-9.21091e-05
-0.000103258
-0.000114732
-0.000126531
-0.000138655
-0.000151102
-0.000163873
-0.000176966
-0.000190382
-0.000204118
-0.000218175
-0.000232552
-0.000247247
-0.000262259
-0.000277588
-0.000293232
-0.000309189
-0.00032546
-0.000342041
-0.000358931
-0.00037613
-0.000393634
-0.000411443
-0.000429554
-0.000447964
-0.000466673
-0.000485677
-0.000504974
-0.000524562
-0.000544437
-0.000564597
-0.000585039
-0.000605759
-0.000626755
-0.000648022
-0.000669557
-0.000691356
-0.000713415
-0.000735731
-0.000758297
-0.000781111
-0.000804167
-0.00082746
-0.000850985
-0.000874736
-0.000898708
-0.000922895
-0.000947291
-0.000971889
-0.000996684
-0.00102167
-0.00104683
-0.00107217
-0.00109768
-0.00112335
-0.00114916
-0.00117512
-0.00120122
-0.00122743
-0.00125377
-0.00128021
-0.00130674
-0.00133336
-0.00136006
-0.00138682
-0.00141363
-0.00144048
)
;

boundaryField
{
    left
    {
        type            calculated;
        value           uniform 9.20107e-05;
    }
    right
    {
        type            calculated;
        value           uniform -0.00145392;
    }
    frontAndBack
    {
        type            empty;
    }
    top_bottom
    {
        type            calculated;
        value           nonuniform List<scalar> 
200
(
9.20107e-05
9.16825e-05
9.10261e-05
9.00415e-05
8.87287e-05
8.70877e-05
8.51185e-05
8.2821e-05
8.01953e-05
7.72412e-05
7.39589e-05
7.03483e-05
6.64093e-05
6.2142e-05
5.75463e-05
5.26222e-05
4.73698e-05
4.17891e-05
3.588e-05
2.96425e-05
2.30768e-05
1.61828e-05
8.96068e-06
1.41039e-06
-6.46793e-06
-1.46742e-05
-2.32082e-05
-3.20699e-05
-4.12591e-05
-5.07755e-05
-6.0619e-05
-7.07893e-05
-8.12861e-05
-9.21091e-05
-0.000103258
-0.000114732
-0.000126531
-0.000138655
-0.000151102
-0.000163873
-0.000176966
-0.000190382
-0.000204118
-0.000218175
-0.000232552
-0.000247247
-0.000262259
-0.000277588
-0.000293232
-0.000309189
-0.00032546
-0.000342041
-0.000358931
-0.00037613
-0.000393634
-0.000411443
-0.000429554
-0.000447964
-0.000466673
-0.000485677
-0.000504974
-0.000524562
-0.000544437
-0.000564597
-0.000585039
-0.000605759
-0.000626755
-0.000648022
-0.000669557
-0.000691356
-0.000713415
-0.000735731
-0.000758297
-0.000781111
-0.000804167
-0.00082746
-0.000850985
-0.000874736
-0.000898708
-0.000922895
-0.000947291
-0.000971889
-0.000996684
-0.00102167
-0.00104683
-0.00107217
-0.00109768
-0.00112335
-0.00114916
-0.00117512
-0.00120122
-0.00122743
-0.00125377
-0.00128021
-0.00130674
-0.00133336
-0.00136006
-0.00138682
-0.00141363
-0.00144048
9.20107e-05
9.16825e-05
9.10261e-05
9.00415e-05
8.87287e-05
8.70877e-05
8.51185e-05
8.2821e-05
8.01953e-05
7.72412e-05
7.39589e-05
7.03483e-05
6.64093e-05
6.2142e-05
5.75463e-05
5.26222e-05
4.73698e-05
4.17891e-05
3.588e-05
2.96425e-05
2.30768e-05
1.61828e-05
8.96068e-06
1.41039e-06
-6.46793e-06
-1.46742e-05
-2.32082e-05
-3.20699e-05
-4.12591e-05
-5.07755e-05
-6.0619e-05
-7.07893e-05
-8.12861e-05
-9.21091e-05
-0.000103258
-0.000114732
-0.000126531
-0.000138655
-0.000151102
-0.000163873
-0.000176966
-0.000190382
-0.000204118
-0.000218175
-0.000232552
-0.000247247
-0.000262259
-0.000277588
-0.000293232
-0.000309189
-0.00032546
-0.000342041
-0.000358931
-0.00037613
-0.000393634
-0.000411443
-0.000429554
-0.000447964
-0.000466673
-0.000485677
-0.000504974
-0.000524562
-0.000544437
-0.000564597
-0.000585039
-0.000605759
-0.000626755
-0.000648022
-0.000669557
-0.000691356
-0.000713415
-0.000735731
-0.000758297
-0.000781111
-0.000804167
-0.00082746
-0.000850985
-0.000874736
-0.000898708
-0.000922895
-0.000947291
-0.000971889
-0.000996684
-0.00102167
-0.00104683
-0.00107217
-0.00109768
-0.00112335
-0.00114916
-0.00117512
-0.00120122
-0.00122743
-0.00125377
-0.00128021
-0.00130674
-0.00133336
-0.00136006
-0.00138682
-0.00141363
-0.00144048
)
;
    }
}


// ************************************************************************* //
