/*--------------------------------*- C++ -*----------------------------------*\
  =========                 |
  \\      /  F ield         | OpenFOAM: The Open Source CFD Toolbox
   \\    /   O peration     | Website:  https://openfoam.org
    \\  /    A nd           | Version:  9
     \\/     M anipulation  |
\*---------------------------------------------------------------------------*/
FoamFile
{
    format      ascii;
    class       volScalarField;
    location    "129600";
    object      gradTx;
}
// * * * * * * * * * * * * * * * * * * * * * * * * * * * * * * * * * * * * * //

dimensions      [0 -1 0 1 0 0 0];

internalField   nonuniform List<scalar> 
100
(
-499.871
-499.613
-499.357
-499.104
-498.855
-498.611
-498.373
-498.143
-497.921
-497.708
-497.507
-497.317
-497.14
-496.978
-496.83
-496.7
-496.586
-496.492
-496.417
-496.363
-496.331
-496.322
-496.338
-496.379
-496.446
-496.542
-496.666
-496.82
-497.005
-497.223
-497.473
-497.759
-498.079
-498.437
-498.832
-499.266
-499.74
-500.255
-500.813
-501.414
-502.059
-502.75
-503.488
-504.273
-505.107
-505.991
-506.926
-507.913
-508.953
-510.048
-511.198
-512.404
-513.667
-514.989
-516.371
-517.813
-519.316
-520.883
-522.512
-524.206
-525.966
-527.792
-529.686
-531.649
-533.68
-535.782
-537.956
-540.201
-542.52
-544.912
-547.38
-549.923
-552.542
-555.24
-558.015
-560.869
-563.803
-566.817
-569.913
-573.09
-576.351
-579.694
-583.121
-586.633
-590.23
-593.913
-597.682
-601.537
-605.48
-609.511
-613.63
-617.837
-622.133
-626.518
-630.993
-635.557
-640.212
-644.956
-649.791
-654.716
)
;

boundaryField
{
    left
    {
        type            calculated;
        value           uniform -500;
    }
    right
    {
        type            calculated;
        value           uniform -657.201;
    }
    frontAndBack
    {
        type            empty;
    }
    top_bottom
    {
        type            calculated;
        value           nonuniform List<scalar> 
200
(
-499.871
-499.613
-499.357
-499.104
-498.855
-498.611
-498.373
-498.143
-497.921
-497.708
-497.507
-497.317
-497.14
-496.978
-496.83
-496.7
-496.586
-496.492
-496.417
-496.363
-496.331
-496.322
-496.338
-496.379
-496.446
-496.542
-496.666
-496.82
-497.005
-497.223
-497.473
-497.759
-498.079
-498.437
-498.832
-499.266
-499.74
-500.255
-500.813
-501.414
-502.059
-502.75
-503.488
-504.273
-505.107
-505.991
-506.926
-507.913
-508.953
-510.048
-511.198
-512.404
-513.667
-514.989
-516.371
-517.813
-519.316
-520.883
-522.512
-524.206
-525.966
-527.792
-529.686
-531.649
-533.68
-535.782
-537.956
-540.201
-542.52
-544.912
-547.38
-549.923
-552.542
-555.24
-558.015
-560.869
-563.803
-566.817
-569.913
-573.09
-576.351
-579.694
-583.121
-586.633
-590.23
-593.913
-597.682
-601.537
-605.48
-609.511
-613.63
-617.837
-622.133
-626.518
-630.993
-635.557
-640.212
-644.956
-649.791
-654.716
-499.871
-499.613
-499.357
-499.104
-498.855
-498.611
-498.373
-498.143
-497.921
-497.708
-497.507
-497.317
-497.14
-496.978
-496.83
-496.7
-496.586
-496.492
-496.417
-496.363
-496.331
-496.322
-496.338
-496.379
-496.446
-496.542
-496.666
-496.82
-497.005
-497.223
-497.473
-497.759
-498.079
-498.437
-498.832
-499.266
-499.74
-500.255
-500.813
-501.414
-502.059
-502.75
-503.488
-504.273
-505.107
-505.991
-506.926
-507.913
-508.953
-510.048
-511.198
-512.404
-513.667
-514.989
-516.371
-517.813
-519.316
-520.883
-522.512
-524.206
-525.966
-527.792
-529.686
-531.649
-533.68
-535.782
-537.956
-540.201
-542.52
-544.912
-547.38
-549.923
-552.542
-555.24
-558.015
-560.869
-563.803
-566.817
-569.913
-573.09
-576.351
-579.694
-583.121
-586.633
-590.23
-593.913
-597.682
-601.537
-605.48
-609.511
-613.63
-617.837
-622.133
-626.518
-630.993
-635.557
-640.212
-644.956
-649.791
-654.716
)
;
    }
}


// ************************************************************************* //
