/*--------------------------------*- C++ -*----------------------------------*\
  =========                 |
  \\      /  F ield         | OpenFOAM: The Open Source CFD Toolbox
   \\    /   O peration     | Website:  https://openfoam.org
    \\  /    A nd           | Version:  9
     \\/     M anipulation  |
\*---------------------------------------------------------------------------*/
FoamFile
{
    format      ascii;
    class       volScalarField;
    location    "129600";
    object      T;
}
// * * * * * * * * * * * * * * * * * * * * * * * * * * * * * * * * * * * * * //

dimensions      [0 0 0 1 0 0 0];

internalField   nonuniform List<scalar> 
100
(
399.207
398.208
397.209
396.211
395.213
394.215
393.218
392.222
391.226
390.23
389.235
388.24
387.245
386.251
385.258
384.264
383.271
382.278
381.285
380.292
379.299
378.307
377.314
376.321
375.329
374.336
373.342
372.349
371.355
370.361
369.366
368.371
367.375
366.379
365.381
364.383
363.384
362.384
361.383
360.381
359.378
358.373
357.367
356.359
355.35
354.339
353.326
352.311
351.294
350.275
349.254
348.23
347.204
346.176
345.144
344.11
343.073
342.033
340.989
339.943
338.893
337.839
336.781
335.72
334.655
333.585
332.512
331.434
330.351
329.264
328.171
327.074
325.972
324.864
323.751
322.632
321.507
320.377
319.24
318.097
316.948
315.791
314.629
313.459
312.282
311.098
309.907
308.707
307.5
306.285
305.062
303.831
302.591
301.342
300.085
298.818
297.543
296.258
294.963
293.658
)
;

boundaryField
{
    left
    {
        type            fixedGradient;
        gradient        uniform 500;
    }
    right
    {
        type            uniformFixedValue;
        uniformValue    
        {
            type            sine;
            amplitude       
            {
                type            constant;
                value           20;
            }
            frequency       1.1574e-05;
            start           0;
            level           
            {
                type            constant;
                value           293;
            }
        }
        value           uniform 293.001;
    }
    frontAndBack
    {
        type            empty;
    }
    top_bottom
    {
        type            zeroGradient;
    }
}


// ************************************************************************* //
