/*--------------------------------*- C++ -*----------------------------------*\
  =========                 |
  \\      /  F ield         | OpenFOAM: The Open Source CFD Toolbox
   \\    /   O peration     | Website:  https://openfoam.org
    \\  /    A nd           | Version:  9
     \\/     M anipulation  |
\*---------------------------------------------------------------------------*/
FoamFile
{
    format      ascii;
    class       volScalarField;
    location    "129600";
    object      T_0;
}
// * * * * * * * * * * * * * * * * * * * * * * * * * * * * * * * * * * * * * //

dimensions      [0 0 0 1 0 0 0];

internalField   nonuniform List<scalar> 
100
(
399.178
398.179
397.18
396.182
395.184
394.187
393.191
392.195
391.2
390.206
389.212
388.218
387.225
386.233
385.24
384.249
383.257
382.266
381.276
380.285
379.295
378.305
377.314
376.324
375.334
374.344
373.354
372.364
371.374
370.383
369.392
368.4
367.408
366.415
365.422
364.428
363.433
362.438
361.441
360.444
359.445
358.445
357.444
356.441
355.437
354.431
353.424
352.414
351.403
350.39
349.374
348.357
347.337
346.314
345.289
344.261
343.231
342.197
341.161
340.121
339.078
338.031
336.981
335.926
334.868
333.806
332.74
331.67
330.595
329.515
328.431
327.342
326.247
325.148
324.043
322.932
321.816
320.694
319.566
318.431
317.291
316.143
314.99
313.829
312.661
311.486
310.303
309.113
307.916
306.71
305.496
304.274
303.043
301.804
300.556
299.299
298.033
296.757
295.472
294.177
)
;

boundaryField
{
    left
    {
        type            fixedGradient;
        gradient        uniform 500;
    }
    right
    {
        type            uniformFixedValue;
        uniformValue    
        {
            type            sine;
            amplitude       
            {
                type            constant;
                value           20;
            }
            frequency       1.1574e-05;
            start           0;
            level           
            {
                type            constant;
                value           293;
            }
        }
        value           uniform 293.525;
    }
    frontAndBack
    {
        type            empty;
    }
    top_bottom
    {
        type            zeroGradient;
    }
}


// ************************************************************************* //
