/*--------------------------------*- C++ -*----------------------------------*\
  =========                 |
  \\      /  F ield         | OpenFOAM: The Open Source CFD Toolbox
   \\    /   O peration     | Website:  https://openfoam.org
    \\  /    A nd           | Version:  9
     \\/     M anipulation  |
\*---------------------------------------------------------------------------*/
FoamFile
{
    format      ascii;
    class       volScalarField;
    location    "10800";
    object      ddt0(T);
}
// * * * * * * * * * * * * * * * * * * * * * * * * * * * * * * * * * * * * * //

dimensions      [0 0 -1 1 0 0 0];

internalField   nonuniform List<scalar> 
100
(
0.004759
0.00475878
0.00475838
0.00475778
0.00475696
0.00475592
0.00475466
0.00475318
0.00475145
0.00474948
0.00474724
0.00474473
0.00474193
0.00473882
0.00473539
0.00473163
0.00472751
0.00472301
0.00471811
0.00471279
0.00470703
0.0047008
0.00469409
0.00468686
0.00467908
0.00467075
0.00466182
0.00465226
0.00464206
0.00463119
0.00461961
0.00460729
0.00459422
0.00458035
0.00456566
0.00455013
0.00453372
0.0045164
0.00449814
0.00447893
0.00445872
0.0044375
0.00441524
0.0043919
0.00436747
0.00434192
0.00431523
0.00428737
0.00425832
0.00422806
0.00419657
0.00416383
0.00412982
0.00409453
0.00405794
0.00402004
0.00398081
0.00394024
0.00389832
0.00385505
0.00381041
0.00376441
0.00371703
0.00366827
0.00361814
0.00356664
0.00351375
0.0034595
0.00340389
0.00334692
0.00328859
0.00322894
0.00316795
0.00310565
0.00304206
0.00297718
0.00291104
0.00284366
0.00277505
0.00270524
0.00263426
0.00256212
0.00248886
0.00241451
0.00233908
0.00226261
0.00218513
0.00210668
0.00202727
0.00194696
0.00186577
0.00178374
0.00170092
0.00161733
0.001533
0.00144789
0.00136197
0.00127528
0.00118857
0.00110483
)
;

boundaryField
{
    left
    {
        type            calculated;
        value           uniform 0.004759;
    }
    right
    {
        type            calculated;
        value           uniform 0.00105731;
    }
    frontAndBack
    {
        type            empty;
    }
    top_bottom
    {
        type            calculated;
        value           nonuniform List<scalar> 
200
(
0.004759
0.00475878
0.00475838
0.00475778
0.00475696
0.00475592
0.00475466
0.00475318
0.00475145
0.00474948
0.00474724
0.00474473
0.00474193
0.00473882
0.00473539
0.00473163
0.00472751
0.00472301
0.00471811
0.00471279
0.00470703
0.0047008
0.00469409
0.00468686
0.00467908
0.00467075
0.00466182
0.00465226
0.00464206
0.00463119
0.00461961
0.00460729
0.00459422
0.00458035
0.00456566
0.00455013
0.00453372
0.0045164
0.00449814
0.00447893
0.00445872
0.0044375
0.00441524
0.0043919
0.00436747
0.00434192
0.00431523
0.00428737
0.00425832
0.00422806
0.00419657
0.00416383
0.00412982
0.00409453
0.00405794
0.00402004
0.00398081
0.00394024
0.00389832
0.00385505
0.00381041
0.00376441
0.00371703
0.00366827
0.00361814
0.00356664
0.00351375
0.0034595
0.00340389
0.00334692
0.00328859
0.00322894
0.00316795
0.00310565
0.00304206
0.00297718
0.00291104
0.00284366
0.00277505
0.00270524
0.00263426
0.00256212
0.00248886
0.00241451
0.00233908
0.00226261
0.00218513
0.00210668
0.00202727
0.00194696
0.00186577
0.00178374
0.00170092
0.00161733
0.001533
0.00144789
0.00136197
0.00127528
0.00118857
0.00110483
0.004759
0.00475878
0.00475838
0.00475778
0.00475696
0.00475592
0.00475466
0.00475318
0.00475145
0.00474948
0.00474724
0.00474473
0.00474193
0.00473882
0.00473539
0.00473163
0.00472751
0.00472301
0.00471811
0.00471279
0.00470703
0.0047008
0.00469409
0.00468686
0.00467908
0.00467075
0.00466182
0.00465226
0.00464206
0.00463119
0.00461961
0.00460729
0.00459422
0.00458035
0.00456566
0.00455013
0.00453372
0.0045164
0.00449814
0.00447893
0.00445872
0.0044375
0.00441524
0.0043919
0.00436747
0.00434192
0.00431523
0.00428737
0.00425832
0.00422806
0.00419657
0.00416383
0.00412982
0.00409453
0.00405794
0.00402004
0.00398081
0.00394024
0.00389832
0.00385505
0.00381041
0.00376441
0.00371703
0.00366827
0.00361814
0.00356664
0.00351375
0.0034595
0.00340389
0.00334692
0.00328859
0.00322894
0.00316795
0.00310565
0.00304206
0.00297718
0.00291104
0.00284366
0.00277505
0.00270524
0.00263426
0.00256212
0.00248886
0.00241451
0.00233908
0.00226261
0.00218513
0.00210668
0.00202727
0.00194696
0.00186577
0.00178374
0.00170092
0.00161733
0.001533
0.00144789
0.00136197
0.00127528
0.00118857
0.00110483
)
;
    }
}


// ************************************************************************* //
