/*--------------------------------*- C++ -*----------------------------------*\
  =========                 |
  \\      /  F ield         | OpenFOAM: The Open Source CFD Toolbox
   \\    /   O peration     | Website:  https://openfoam.org
    \\  /    A nd           | Version:  9
     \\/     M anipulation  |
\*---------------------------------------------------------------------------*/
FoamFile
{
    format      ascii;
    class       volScalarField;
    location    "10800";
    object      gradTx;
}
// * * * * * * * * * * * * * * * * * * * * * * * * * * * * * * * * * * * * * //

dimensions      [0 -1 0 1 0 0 0];

internalField   nonuniform List<scalar> 
100
(
-491.817
-475.45
-459.085
-442.722
-426.362
-410.007
-393.657
-377.313
-360.976
-344.648
-328.329
-312.02
-295.723
-279.439
-263.169
-246.915
-230.677
-214.458
-198.258
-182.08
-165.925
-149.795
-133.69
-117.615
-101.569
-85.5557
-69.5767
-53.6341
-37.7303
-21.8676
-6.04833
9.72491
25.4495
41.1229
56.7422
72.3045
87.807
103.246
118.62
133.924
149.156
164.312
179.388
194.382
209.289
224.105
238.828
253.453
267.976
282.394
296.702
310.896
324.972
338.926
352.754
366.451
380.013
393.435
406.714
419.845
432.823
445.644
458.304
470.798
483.121
495.269
507.238
519.023
530.62
542.024
553.231
564.237
575.036
585.626
596.001
606.157
616.091
625.798
635.275
644.516
653.519
662.28
670.794
679.059
687.07
694.824
702.319
709.549
716.514
723.208
729.63
735.776
741.644
747.23
752.534
757.551
762.28
766.719
770.866
774.714
)
;

boundaryField
{
    left
    {
        type            calculated;
        value           uniform -500;
    }
    right
    {
        type            calculated;
        value           uniform 776.561;
    }
    frontAndBack
    {
        type            empty;
    }
    top_bottom
    {
        type            calculated;
        value           nonuniform List<scalar> 
200
(
-491.817
-475.45
-459.085
-442.722
-426.362
-410.007
-393.657
-377.313
-360.976
-344.648
-328.329
-312.02
-295.723
-279.439
-263.169
-246.915
-230.677
-214.458
-198.258
-182.08
-165.925
-149.795
-133.69
-117.615
-101.569
-85.5557
-69.5767
-53.6341
-37.7303
-21.8676
-6.04833
9.72491
25.4495
41.1229
56.7422
72.3045
87.807
103.246
118.62
133.924
149.156
164.312
179.388
194.382
209.289
224.105
238.828
253.453
267.976
282.394
296.702
310.896
324.972
338.926
352.754
366.451
380.013
393.435
406.714
419.845
432.823
445.644
458.304
470.798
483.121
495.269
507.238
519.023
530.62
542.024
553.231
564.237
575.036
585.626
596.001
606.157
616.091
625.798
635.275
644.516
653.519
662.28
670.794
679.059
687.07
694.824
702.319
709.549
716.514
723.208
729.63
735.776
741.644
747.23
752.534
757.551
762.28
766.719
770.866
774.714
-491.817
-475.45
-459.085
-442.722
-426.362
-410.007
-393.657
-377.313
-360.976
-344.648
-328.329
-312.02
-295.723
-279.439
-263.169
-246.915
-230.677
-214.458
-198.258
-182.08
-165.925
-149.795
-133.69
-117.615
-101.569
-85.5557
-69.5767
-53.6341
-37.7303
-21.8676
-6.04833
9.72491
25.4495
41.1229
56.7422
72.3045
87.807
103.246
118.62
133.924
149.156
164.312
179.388
194.382
209.289
224.105
238.828
253.453
267.976
282.394
296.702
310.896
324.972
338.926
352.754
366.451
380.013
393.435
406.714
419.845
432.823
445.644
458.304
470.798
483.121
495.269
507.238
519.023
530.62
542.024
553.231
564.237
575.036
585.626
596.001
606.157
616.091
625.798
635.275
644.516
653.519
662.28
670.794
679.059
687.07
694.824
702.319
709.549
716.514
723.208
729.63
735.776
741.644
747.23
752.534
757.551
762.28
766.719
770.866
774.714
)
;
    }
}


// ************************************************************************* //
