/*--------------------------------*- C++ -*----------------------------------*\
  =========                 |
  \\      /  F ield         | OpenFOAM: The Open Source CFD Toolbox
   \\    /   O peration     | Website:  https://openfoam.org
    \\  /    A nd           | Version:  9
     \\/     M anipulation  |
\*---------------------------------------------------------------------------*/
FoamFile
{
    format      ascii;
    class       volScalarField;
    location    "10800";
    object      T;
}
// * * * * * * * * * * * * * * * * * * * * * * * * * * * * * * * * * * * * * //

dimensions      [0 0 0 1 0 0 0];

internalField   nonuniform List<scalar> 
100
(
258.539
257.571
256.637
255.735
254.866
254.03
253.226
252.455
251.717
251.011
250.338
249.698
249.09
248.515
247.972
247.462
246.985
246.539
246.127
245.746
245.398
245.083
244.799
244.548
244.329
244.142
243.987
243.863
243.772
243.712
243.685
243.688
243.723
243.79
243.888
244.017
244.177
244.368
244.59
244.843
245.126
245.439
245.783
246.157
246.561
246.994
247.457
247.949
248.471
249.021
249.6
250.208
250.844
251.508
252.2
252.919
253.665
254.439
255.239
256.066
256.919
257.797
258.701
259.63
260.584
261.563
262.565
263.592
264.642
265.714
266.81
267.927
269.067
270.227
271.409
272.611
273.834
275.076
276.337
277.617
278.915
280.231
281.564
282.914
284.28
285.662
287.06
288.472
289.898
291.338
292.791
294.256
295.734
297.223
298.723
300.233
301.753
303.282
304.82
306.366
)
;

boundaryField
{
    left
    {
        type            fixedGradient;
        gradient        uniform 500;
    }
    right
    {
        type            uniformFixedValue;
        uniformValue    
        {
            type            sine;
            amplitude       
            {
                type            constant;
                value           20;
            }
            frequency       1.1574e-05;
            start           0;
            level           
            {
                type            constant;
                value           293;
            }
        }
        value           uniform 307.142;
    }
    frontAndBack
    {
        type            empty;
    }
    top_bottom
    {
        type            zeroGradient;
    }
}


// ************************************************************************* //
