/*--------------------------------*- C++ -*----------------------------------*\
  =========                 |
  \\      /  F ield         | OpenFOAM: The Open Source CFD Toolbox
   \\    /   O peration     | Website:  https://openfoam.org
    \\  /    A nd           | Version:  9
     \\/     M anipulation  |
\*---------------------------------------------------------------------------*/
FoamFile
{
    format      ascii;
    class       volScalarField;
    location    "10800";
    object      T_0;
}
// * * * * * * * * * * * * * * * * * * * * * * * * * * * * * * * * * * * * * //

dimensions      [0 0 0 1 0 0 0];

internalField   nonuniform List<scalar> 
100
(
256.828
255.861
254.926
254.025
253.156
252.32
251.517
250.747
250.009
249.304
248.632
247.993
247.387
246.813
246.272
245.763
245.287
244.844
244.433
244.055
243.709
243.396
243.115
242.867
242.651
242.467
242.315
242.196
242.108
242.053
242.03
242.038
242.078
242.15
242.254
242.389
242.555
242.753
242.981
243.241
243.532
243.853
244.205
244.588
245
245.443
245.916
246.419
246.951
247.512
248.103
248.723
249.371
250.048
250.753
251.486
252.247
253.035
253.85
254.693
255.562
256.457
257.378
258.325
259.297
260.294
261.315
262.361
263.431
264.524
265.64
266.779
267.94
269.123
270.328
271.553
272.799
274.065
275.351
276.656
277.979
279.321
280.68
282.056
283.449
284.859
286.284
287.723
289.178
290.646
292.128
293.623
295.13
296.649
298.179
299.719
301.269
302.829
304.398
305.975
)
;

boundaryField
{
    left
    {
        type            fixedGradient;
        gradient        uniform 500;
    }
    right
    {
        type            uniformFixedValue;
        uniformValue    
        {
            type            sine;
            amplitude       
            {
                type            constant;
                value           20;
            }
            frequency       1.1574e-05;
            start           0;
            level           
            {
                type            constant;
                value           293;
            }
        }
        value           uniform 306.767;
    }
    frontAndBack
    {
        type            empty;
    }
    top_bottom
    {
        type            zeroGradient;
    }
}


// ************************************************************************* //
