/*--------------------------------*- C++ -*----------------------------------*\
  =========                 |
  \\      /  F ield         | OpenFOAM: The Open Source CFD Toolbox
   \\    /   O peration     | Website:  https://openfoam.org
    \\  /    A nd           | Version:  9
     \\/     M anipulation  |
\*---------------------------------------------------------------------------*/
FoamFile
{
    format      ascii;
    class       volScalarField;
    location    "165600";
    object      ddt0(T);
}
// * * * * * * * * * * * * * * * * * * * * * * * * * * * * * * * * * * * * * //

dimensions      [0 0 -1 1 0 0 0];

internalField   nonuniform List<scalar> 
100
(
-0.000314078
-0.000313819
-0.000313301
-0.000312525
-0.000311489
-0.000310194
-0.000308639
-0.000306823
-0.000304746
-0.000302408
-0.000299807
-0.000296942
-0.000293813
-0.000290419
-0.000286759
-0.000282831
-0.000278634
-0.000274167
-0.000269429
-0.000264417
-0.000259131
-0.000253569
-0.000247729
-0.00024161
-0.000235209
-0.000228524
-0.000221555
-0.000214298
-0.000206751
-0.000198914
-0.000190782
-0.000182354
-0.000173628
-0.000164602
-0.000155272
-0.000145637
-0.000135693
-0.00012544
-0.000114872
-0.000103989
-9.2788e-05
-8.12653e-05
-6.94188e-05
-5.72456e-05
-4.4743e-05
-3.19082e-05
-1.87384e-05
-5.23083e-06
8.61743e-06
2.28092e-05
3.73472e-05
5.22345e-05
6.74737e-05
8.30677e-05
9.90194e-05
0.000115331
0.000132007
0.000149048
0.000166458
0.000184239
0.000202394
0.000220926
0.000239837
0.00025913
0.000278806
0.00029887
0.000319322
0.000340165
0.000361402
0.000383034
0.000405063
0.000427492
0.000450321
0.000473554
0.000497191
0.000521234
0.000545684
0.000570543
0.000595812
0.000621491
0.000647582
0.000674084
0.000701
0.000728328
0.000756069
0.000784223
0.000812791
0.00084177
0.000871162
0.000900965
0.000931177
0.000961799
0.000992828
0.00102426
0.0010561
0.00108834
0.00112098
0.00115401
0.00118744
0.00122126
)
;

boundaryField
{
    left
    {
        type            calculated;
        value           uniform -0.000314078;
    }
    right
    {
        type            calculated;
        value           uniform 0.00123836;
    }
    frontAndBack
    {
        type            empty;
    }
    top_bottom
    {
        type            calculated;
        value           nonuniform List<scalar> 
200
(
-0.000314078
-0.000313819
-0.000313301
-0.000312525
-0.000311489
-0.000310194
-0.000308639
-0.000306823
-0.000304746
-0.000302408
-0.000299807
-0.000296942
-0.000293813
-0.000290419
-0.000286759
-0.000282831
-0.000278634
-0.000274167
-0.000269429
-0.000264417
-0.000259131
-0.000253569
-0.000247729
-0.00024161
-0.000235209
-0.000228524
-0.000221555
-0.000214298
-0.000206751
-0.000198914
-0.000190782
-0.000182354
-0.000173628
-0.000164602
-0.000155272
-0.000145637
-0.000135693
-0.00012544
-0.000114872
-0.000103989
-9.2788e-05
-8.12653e-05
-6.94188e-05
-5.72456e-05
-4.4743e-05
-3.19082e-05
-1.87384e-05
-5.23083e-06
8.61743e-06
2.28092e-05
3.73472e-05
5.22345e-05
6.74737e-05
8.30677e-05
9.90194e-05
0.000115331
0.000132007
0.000149048
0.000166458
0.000184239
0.000202394
0.000220926
0.000239837
0.00025913
0.000278806
0.00029887
0.000319322
0.000340165
0.000361402
0.000383034
0.000405063
0.000427492
0.000450321
0.000473554
0.000497191
0.000521234
0.000545684
0.000570543
0.000595812
0.000621491
0.000647582
0.000674084
0.000701
0.000728328
0.000756069
0.000784223
0.000812791
0.00084177
0.000871162
0.000900965
0.000931177
0.000961799
0.000992828
0.00102426
0.0010561
0.00108834
0.00112098
0.00115401
0.00118744
0.00122126
-0.000314078
-0.000313819
-0.000313301
-0.000312525
-0.000311489
-0.000310194
-0.000308639
-0.000306823
-0.000304746
-0.000302408
-0.000299807
-0.000296942
-0.000293813
-0.000290419
-0.000286759
-0.000282831
-0.000278634
-0.000274167
-0.000269429
-0.000264417
-0.000259131
-0.000253569
-0.000247729
-0.00024161
-0.000235209
-0.000228524
-0.000221555
-0.000214298
-0.000206751
-0.000198914
-0.000190782
-0.000182354
-0.000173628
-0.000164602
-0.000155272
-0.000145637
-0.000135693
-0.00012544
-0.000114872
-0.000103989
-9.2788e-05
-8.12653e-05
-6.94188e-05
-5.72456e-05
-4.4743e-05
-3.19082e-05
-1.87384e-05
-5.23083e-06
8.61743e-06
2.28092e-05
3.73472e-05
5.22345e-05
6.74737e-05
8.30677e-05
9.90194e-05
0.000115331
0.000132007
0.000149048
0.000166458
0.000184239
0.000202394
0.000220926
0.000239837
0.00025913
0.000278806
0.00029887
0.000319322
0.000340165
0.000361402
0.000383034
0.000405063
0.000427492
0.000450321
0.000473554
0.000497191
0.000521234
0.000545684
0.000570543
0.000595812
0.000621491
0.000647582
0.000674084
0.000701
0.000728328
0.000756069
0.000784223
0.000812791
0.00084177
0.000871162
0.000900965
0.000931177
0.000961799
0.000992828
0.00102426
0.0010561
0.00108834
0.00112098
0.00115401
0.00118744
0.00122126
)
;
    }
}


// ************************************************************************* //
