/*--------------------------------*- C++ -*----------------------------------*\
  =========                 |
  \\      /  F ield         | OpenFOAM: The Open Source CFD Toolbox
   \\    /   O peration     | Website:  https://openfoam.org
    \\  /    A nd           | Version:  9
     \\/     M anipulation  |
\*---------------------------------------------------------------------------*/
FoamFile
{
    format      ascii;
    class       volScalarField;
    location    "165600";
    object      gradTx;
}
// * * * * * * * * * * * * * * * * * * * * * * * * * * * * * * * * * * * * * //

dimensions      [0 -1 0 1 0 0 0];

internalField   nonuniform List<scalar> 
100
(
-500.518
-501.554
-502.588
-503.62
-504.648
-505.673
-506.693
-507.706
-508.713
-509.713
-510.703
-511.684
-512.654
-513.613
-514.56
-515.494
-516.413
-517.317
-518.204
-519.075
-519.928
-520.762
-521.575
-522.368
-523.139
-523.887
-524.611
-525.311
-525.984
-526.63
-527.249
-527.838
-528.398
-528.927
-529.423
-529.886
-530.316
-530.709
-531.067
-531.387
-531.669
-531.911
-532.112
-532.271
-532.387
-532.459
-532.486
-532.466
-532.399
-532.282
-532.116
-531.899
-531.629
-531.305
-530.927
-530.492
-530
-529.45
-528.839
-528.168
-527.434
-526.636
-525.774
-524.845
-523.848
-522.783
-521.647
-520.44
-519.16
-517.806
-516.376
-514.869
-513.284
-511.619
-509.873
-508.044
-506.132
-504.135
-502.051
-499.879
-497.618
-495.266
-492.821
-490.284
-487.651
-484.922
-482.096
-479.17
-476.144
-473.016
-469.784
-466.448
-463.007
-459.457
-455.8
-452.032
-448.153
-444.161
-440.055
-435.834
)
;

boundaryField
{
    left
    {
        type            calculated;
        value           uniform -500;
    }
    right
    {
        type            calculated;
        value           uniform -433.695;
    }
    frontAndBack
    {
        type            empty;
    }
    top_bottom
    {
        type            calculated;
        value           nonuniform List<scalar> 
200
(
-500.518
-501.554
-502.588
-503.62
-504.648
-505.673
-506.693
-507.706
-508.713
-509.713
-510.703
-511.684
-512.654
-513.613
-514.56
-515.494
-516.413
-517.317
-518.204
-519.075
-519.928
-520.762
-521.575
-522.368
-523.139
-523.887
-524.611
-525.311
-525.984
-526.63
-527.249
-527.838
-528.398
-528.927
-529.423
-529.886
-530.316
-530.709
-531.067
-531.387
-531.669
-531.911
-532.112
-532.271
-532.387
-532.459
-532.486
-532.466
-532.399
-532.282
-532.116
-531.899
-531.629
-531.305
-530.927
-530.492
-530
-529.45
-528.839
-528.168
-527.434
-526.636
-525.774
-524.845
-523.848
-522.783
-521.647
-520.44
-519.16
-517.806
-516.376
-514.869
-513.284
-511.619
-509.873
-508.044
-506.132
-504.135
-502.051
-499.879
-497.618
-495.266
-492.821
-490.284
-487.651
-484.922
-482.096
-479.17
-476.144
-473.016
-469.784
-466.448
-463.007
-459.457
-455.8
-452.032
-448.153
-444.161
-440.055
-435.834
-500.518
-501.554
-502.588
-503.62
-504.648
-505.673
-506.693
-507.706
-508.713
-509.713
-510.703
-511.684
-512.654
-513.613
-514.56
-515.494
-516.413
-517.317
-518.204
-519.075
-519.928
-520.762
-521.575
-522.368
-523.139
-523.887
-524.611
-525.311
-525.984
-526.63
-527.249
-527.838
-528.398
-528.927
-529.423
-529.886
-530.316
-530.709
-531.067
-531.387
-531.669
-531.911
-532.112
-532.271
-532.387
-532.459
-532.486
-532.466
-532.399
-532.282
-532.116
-531.899
-531.629
-531.305
-530.927
-530.492
-530
-529.45
-528.839
-528.168
-527.434
-526.636
-525.774
-524.845
-523.848
-522.783
-521.647
-520.44
-519.16
-517.806
-516.376
-514.869
-513.284
-511.619
-509.873
-508.044
-506.132
-504.135
-502.051
-499.879
-497.618
-495.266
-492.821
-490.284
-487.651
-484.922
-482.096
-479.17
-476.144
-473.016
-469.784
-466.448
-463.007
-459.457
-455.8
-452.032
-448.153
-444.161
-440.055
-435.834
)
;
    }
}


// ************************************************************************* //
