/*--------------------------------*- C++ -*----------------------------------*\
  =========                 |
  \\      /  F ield         | OpenFOAM: The Open Source CFD Toolbox
   \\    /   O peration     | Website:  https://openfoam.org
    \\  /    A nd           | Version:  9
     \\/     M anipulation  |
\*---------------------------------------------------------------------------*/
FoamFile
{
    format      ascii;
    class       volScalarField;
    location    "165600";
    object      T;
}
// * * * * * * * * * * * * * * * * * * * * * * * * * * * * * * * * * * * * * //

dimensions      [0 0 0 1 0 0 0];

internalField   nonuniform List<scalar> 
100
(
384.635
383.633
382.629
381.623
380.614
379.604
378.592
377.577
376.561
375.542
374.522
373.5
372.475
371.449
370.421
369.391
368.359
367.325
366.289
365.252
364.213
363.172
362.13
361.086
360.041
358.994
357.945
356.895
355.844
354.791
353.737
352.682
351.626
350.569
349.51
348.451
347.391
346.33
345.268
344.205
343.142
342.079
341.015
339.95
338.886
337.821
336.756
335.691
334.626
333.561
332.497
331.433
330.369
329.306
328.244
327.183
326.122
325.063
324.004
322.947
321.892
320.837
319.785
318.734
317.686
316.639
315.594
314.552
313.513
312.476
311.442
310.41
309.382
308.357
307.336
306.318
305.303
304.293
303.287
302.285
301.287
300.294
299.306
298.323
297.345
296.373
295.405
294.444
293.489
292.54
291.597
290.66
289.731
288.808
287.893
286.985
286.085
285.193
284.308
283.432
)
;

boundaryField
{
    left
    {
        type            fixedGradient;
        gradient        uniform 500;
    }
    right
    {
        type            uniformFixedValue;
        uniformValue    
        {
            type            sine;
            amplitude       
            {
                type            constant;
                value           20;
            }
            frequency       1.1574e-05;
            start           0;
            level           
            {
                type            constant;
                value           293;
            }
        }
        value           uniform 282.999;
    }
    frontAndBack
    {
        type            empty;
    }
    top_bottom
    {
        type            zeroGradient;
    }
}


// ************************************************************************* //
