/*--------------------------------*- C++ -*----------------------------------*\
  =========                 |
  \\      /  F ield         | OpenFOAM: The Open Source CFD Toolbox
   \\    /   O peration     | Website:  https://openfoam.org
    \\  /    A nd           | Version:  9
     \\/     M anipulation  |
\*---------------------------------------------------------------------------*/
FoamFile
{
    format      ascii;
    class       volScalarField;
    location    "165600";
    object      T_0;
}
// * * * * * * * * * * * * * * * * * * * * * * * * * * * * * * * * * * * * * //

dimensions      [0 0 0 1 0 0 0];

internalField   nonuniform List<scalar> 
100
(
384.745
383.743
382.739
381.732
380.724
379.713
378.7
377.685
376.668
375.648
374.627
373.603
372.578
371.55
370.521
369.489
368.456
367.421
366.383
365.344
364.303
363.261
362.216
361.17
360.122
359.073
358.022
356.969
355.915
354.86
353.803
352.745
351.685
350.625
349.563
348.5
347.436
346.371
345.306
344.239
343.172
342.104
341.036
339.967
338.898
337.829
336.759
335.689
334.619
333.549
332.48
331.41
330.341
329.272
328.204
327.137
326.07
325.005
323.94
322.877
321.815
320.754
319.694
318.637
317.581
316.527
315.475
314.426
313.378
312.333
311.291
310.252
309.216
308.182
307.152
306.126
305.102
304.083
303.068
302.057
301.05
300.047
299.049
298.056
297.068
296.086
295.108
294.137
293.171
292.211
291.257
290.31
289.369
288.435
287.509
286.589
285.677
284.773
283.877
282.989
)
;

boundaryField
{
    left
    {
        type            fixedGradient;
        gradient        uniform 500;
    }
    right
    {
        type            uniformFixedValue;
        uniformValue    
        {
            type            sine;
            amplitude       
            {
                type            constant;
                value           20;
            }
            frequency       1.1574e-05;
            start           0;
            level           
            {
                type            constant;
                value           293;
            }
        }
        value           uniform 282.549;
    }
    frontAndBack
    {
        type            empty;
    }
    top_bottom
    {
        type            zeroGradient;
    }
}


// ************************************************************************* //
