/*--------------------------------*- C++ -*----------------------------------*\
  =========                 |
  \\      /  F ield         | OpenFOAM: The Open Source CFD Toolbox
   \\    /   O peration     | Website:  https://openfoam.org
    \\  /    A nd           | Version:  9
     \\/     M anipulation  |
\*---------------------------------------------------------------------------*/
FoamFile
{
    format      ascii;
    class       volScalarField;
    location    "68400";
    object      ddt0(T);
}
// * * * * * * * * * * * * * * * * * * * * * * * * * * * * * * * * * * * * * //

dimensions      [0 0 -1 1 0 0 0];

internalField   nonuniform List<scalar> 
100
(
-1.11801e-05
-1.12592e-05
-1.14174e-05
-1.16542e-05
-1.19689e-05
-1.2361e-05
-1.28294e-05
-1.3373e-05
-1.39905e-05
-1.46803e-05
-1.54409e-05
-1.62702e-05
-1.71662e-05
-1.81266e-05
-1.91491e-05
-2.02309e-05
-2.13693e-05
-2.25612e-05
-2.38034e-05
-2.50927e-05
-2.64253e-05
-2.77975e-05
-2.92055e-05
-3.06451e-05
-3.2112e-05
-3.36018e-05
-3.51098e-05
-3.6631e-05
-3.81607e-05
-3.96934e-05
-4.12239e-05
-4.27467e-05
-4.42559e-05
-4.57457e-05
-4.721e-05
-4.86426e-05
-5.0037e-05
-5.13867e-05
-5.26849e-05
-5.39246e-05
-5.50989e-05
-5.62003e-05
-5.72216e-05
-5.8155e-05
-5.8993e-05
-5.97274e-05
-6.03504e-05
-6.08537e-05
-6.12288e-05
-6.14673e-05
-6.15606e-05
-6.14997e-05
-6.12757e-05
-6.08794e-05
-6.03017e-05
-5.95331e-05
-5.85641e-05
-5.73851e-05
-5.59861e-05
-5.43573e-05
-5.24886e-05
-5.03698e-05
-4.79906e-05
-4.53406e-05
-4.24092e-05
-3.91858e-05
-3.56596e-05
-3.18197e-05
-2.76551e-05
-2.31549e-05
-1.83077e-05
-1.31023e-05
-7.52736e-06
-1.57145e-06
4.77696e-06
1.15295e-05
1.86978e-05
2.62936e-05
3.43287e-05
4.2815e-05
5.17645e-05
6.1189e-05
7.11005e-05
8.15112e-05
9.24331e-05
0.000103878
0.000115859
0.000128387
0.000141475
0.000155135
0.00016938
0.00018422
0.000199669
0.000215738
0.00023244
0.000249787
0.000267791
0.000286463
0.000305816
0.000325861
)
;

boundaryField
{
    left
    {
        type            calculated;
        value           uniform -1.11801e-05;
    }
    right
    {
        type            calculated;
        value           uniform 0.000336236;
    }
    frontAndBack
    {
        type            empty;
    }
    top_bottom
    {
        type            calculated;
        value           nonuniform List<scalar> 
200
(
-1.11801e-05
-1.12592e-05
-1.14174e-05
-1.16542e-05
-1.19689e-05
-1.2361e-05
-1.28294e-05
-1.3373e-05
-1.39905e-05
-1.46803e-05
-1.54409e-05
-1.62702e-05
-1.71662e-05
-1.81266e-05
-1.91491e-05
-2.02309e-05
-2.13693e-05
-2.25612e-05
-2.38034e-05
-2.50927e-05
-2.64253e-05
-2.77975e-05
-2.92055e-05
-3.06451e-05
-3.2112e-05
-3.36018e-05
-3.51098e-05
-3.6631e-05
-3.81607e-05
-3.96934e-05
-4.12239e-05
-4.27467e-05
-4.42559e-05
-4.57457e-05
-4.721e-05
-4.86426e-05
-5.0037e-05
-5.13867e-05
-5.26849e-05
-5.39246e-05
-5.50989e-05
-5.62003e-05
-5.72216e-05
-5.8155e-05
-5.8993e-05
-5.97274e-05
-6.03504e-05
-6.08537e-05
-6.12288e-05
-6.14673e-05
-6.15606e-05
-6.14997e-05
-6.12757e-05
-6.08794e-05
-6.03017e-05
-5.95331e-05
-5.85641e-05
-5.73851e-05
-5.59861e-05
-5.43573e-05
-5.24886e-05
-5.03698e-05
-4.79906e-05
-4.53406e-05
-4.24092e-05
-3.91858e-05
-3.56596e-05
-3.18197e-05
-2.76551e-05
-2.31549e-05
-1.83077e-05
-1.31023e-05
-7.52736e-06
-1.57145e-06
4.77696e-06
1.15295e-05
1.86978e-05
2.62936e-05
3.43287e-05
4.2815e-05
5.17645e-05
6.1189e-05
7.11005e-05
8.15112e-05
9.24331e-05
0.000103878
0.000115859
0.000128387
0.000141475
0.000155135
0.00016938
0.00018422
0.000199669
0.000215738
0.00023244
0.000249787
0.000267791
0.000286463
0.000305816
0.000325861
-1.11801e-05
-1.12592e-05
-1.14174e-05
-1.16542e-05
-1.19689e-05
-1.2361e-05
-1.28294e-05
-1.3373e-05
-1.39905e-05
-1.46803e-05
-1.54409e-05
-1.62702e-05
-1.71662e-05
-1.81266e-05
-1.91491e-05
-2.02309e-05
-2.13693e-05
-2.25612e-05
-2.38034e-05
-2.50927e-05
-2.64253e-05
-2.77975e-05
-2.92055e-05
-3.06451e-05
-3.2112e-05
-3.36018e-05
-3.51098e-05
-3.6631e-05
-3.81607e-05
-3.96934e-05
-4.12239e-05
-4.27467e-05
-4.42559e-05
-4.57457e-05
-4.721e-05
-4.86426e-05
-5.0037e-05
-5.13867e-05
-5.26849e-05
-5.39246e-05
-5.50989e-05
-5.62003e-05
-5.72216e-05
-5.8155e-05
-5.8993e-05
-5.97274e-05
-6.03504e-05
-6.08537e-05
-6.12288e-05
-6.14673e-05
-6.15606e-05
-6.14997e-05
-6.12757e-05
-6.08794e-05
-6.03017e-05
-5.95331e-05
-5.85641e-05
-5.73851e-05
-5.59861e-05
-5.43573e-05
-5.24886e-05
-5.03698e-05
-4.79906e-05
-4.53406e-05
-4.24092e-05
-3.91858e-05
-3.56596e-05
-3.18197e-05
-2.76551e-05
-2.31549e-05
-1.83077e-05
-1.31023e-05
-7.52736e-06
-1.57145e-06
4.77696e-06
1.15295e-05
1.86978e-05
2.62936e-05
3.43287e-05
4.2815e-05
5.17645e-05
6.1189e-05
7.11005e-05
8.15112e-05
9.24331e-05
0.000103878
0.000115859
0.000128387
0.000141475
0.000155135
0.00016938
0.00018422
0.000199669
0.000215738
0.00023244
0.000249787
0.000267791
0.000286463
0.000305816
0.000325861
)
;
    }
}


// ************************************************************************* //
