/*--------------------------------*- C++ -*----------------------------------*\
  =========                 |
  \\      /  F ield         | OpenFOAM: The Open Source CFD Toolbox
   \\    /   O peration     | Website:  https://openfoam.org
    \\  /    A nd           | Version:  9
     \\/     M anipulation  |
\*---------------------------------------------------------------------------*/
FoamFile
{
    format      ascii;
    class       volScalarField;
    location    "68400";
    object      gradTx;
}
// * * * * * * * * * * * * * * * * * * * * * * * * * * * * * * * * * * * * * //

dimensions      [0 -1 0 1 0 0 0];

internalField   nonuniform List<scalar> 
100
(
-500.026
-500.078
-500.13
-500.183
-500.237
-500.291
-500.347
-500.405
-500.464
-500.525
-500.589
-500.655
-500.723
-500.794
-500.868
-500.946
-501.026
-501.11
-501.198
-501.29
-501.385
-501.484
-501.587
-501.695
-501.807
-501.923
-502.043
-502.168
-502.297
-502.43
-502.568
-502.71
-502.856
-503.006
-503.16
-503.318
-503.48
-503.645
-503.814
-503.985
-504.16
-504.337
-504.517
-504.698
-504.882
-505.066
-505.251
-505.437
-505.623
-505.808
-505.993
-506.176
-506.356
-506.534
-506.709
-506.88
-507.046
-507.206
-507.36
-507.508
-507.647
-507.778
-507.899
-508.01
-508.109
-508.195
-508.268
-508.327
-508.369
-508.395
-508.402
-508.391
-508.358
-508.304
-508.226
-508.124
-507.996
-507.84
-507.655
-507.439
-507.192
-506.91
-506.593
-506.239
-505.846
-505.412
-504.935
-504.415
-503.847
-503.232
-502.566
-501.848
-501.076
-500.247
-499.36
-498.412
-497.4
-496.324
-495.179
-493.965
)
;

boundaryField
{
    left
    {
        type            calculated;
        value           uniform -500;
    }
    right
    {
        type            calculated;
        value           uniform -493.34;
    }
    frontAndBack
    {
        type            empty;
    }
    top_bottom
    {
        type            calculated;
        value           nonuniform List<scalar> 
200
(
-500.026
-500.078
-500.13
-500.183
-500.237
-500.291
-500.347
-500.405
-500.464
-500.525
-500.589
-500.655
-500.723
-500.794
-500.868
-500.946
-501.026
-501.11
-501.198
-501.29
-501.385
-501.484
-501.587
-501.695
-501.807
-501.923
-502.043
-502.168
-502.297
-502.43
-502.568
-502.71
-502.856
-503.006
-503.16
-503.318
-503.48
-503.645
-503.814
-503.985
-504.16
-504.337
-504.517
-504.698
-504.882
-505.066
-505.251
-505.437
-505.623
-505.808
-505.993
-506.176
-506.356
-506.534
-506.709
-506.88
-507.046
-507.206
-507.36
-507.508
-507.647
-507.778
-507.899
-508.01
-508.109
-508.195
-508.268
-508.327
-508.369
-508.395
-508.402
-508.391
-508.358
-508.304
-508.226
-508.124
-507.996
-507.84
-507.655
-507.439
-507.192
-506.91
-506.593
-506.239
-505.846
-505.412
-504.935
-504.415
-503.847
-503.232
-502.566
-501.848
-501.076
-500.247
-499.36
-498.412
-497.4
-496.324
-495.179
-493.965
-500.026
-500.078
-500.13
-500.183
-500.237
-500.291
-500.347
-500.405
-500.464
-500.525
-500.589
-500.655
-500.723
-500.794
-500.868
-500.946
-501.026
-501.11
-501.198
-501.29
-501.385
-501.484
-501.587
-501.695
-501.807
-501.923
-502.043
-502.168
-502.297
-502.43
-502.568
-502.71
-502.856
-503.006
-503.16
-503.318
-503.48
-503.645
-503.814
-503.985
-504.16
-504.337
-504.517
-504.698
-504.882
-505.066
-505.251
-505.437
-505.623
-505.808
-505.993
-506.176
-506.356
-506.534
-506.709
-506.88
-507.046
-507.206
-507.36
-507.508
-507.647
-507.778
-507.899
-508.01
-508.109
-508.195
-508.268
-508.327
-508.369
-508.395
-508.402
-508.391
-508.358
-508.304
-508.226
-508.124
-507.996
-507.84
-507.655
-507.439
-507.192
-506.91
-506.593
-506.239
-505.846
-505.412
-504.935
-504.415
-503.847
-503.232
-502.566
-501.848
-501.076
-500.247
-499.36
-498.412
-497.4
-496.324
-495.179
-493.965
)
;
    }
}


// ************************************************************************* //
