/*--------------------------------*- C++ -*----------------------------------*\
  =========                 |
  \\      /  F ield         | OpenFOAM: The Open Source CFD Toolbox
   \\    /   O peration     | Website:  https://openfoam.org
    \\  /    A nd           | Version:  9
     \\/     M anipulation  |
\*---------------------------------------------------------------------------*/
FoamFile
{
    format      ascii;
    class       volScalarField;
    location    "68400";
    object      T;
}
// * * * * * * * * * * * * * * * * * * * * * * * * * * * * * * * * * * * * * //

dimensions      [0 0 0 1 0 0 0];

internalField   nonuniform List<scalar> 
100
(
373.948
372.948
371.948
370.948
369.947
368.947
367.946
366.945
365.945
364.944
363.942
362.941
361.94
360.938
359.937
358.935
357.933
356.931
355.928
354.926
353.923
352.92
351.917
350.914
349.911
348.907
347.903
346.899
345.894
344.889
343.884
342.879
341.874
340.868
339.862
338.855
337.848
336.841
335.834
334.826
333.818
332.809
331.8
330.791
329.782
328.772
327.761
326.751
325.74
324.728
323.716
322.704
321.692
320.679
319.666
318.652
317.638
316.624
315.609
314.594
313.579
312.564
311.548
310.532
309.516
308.5
307.483
306.467
305.45
304.433
303.416
302.4
301.383
300.366
299.35
298.333
297.317
296.301
295.286
294.271
293.256
292.242
291.228
290.215
289.203
288.192
287.182
286.172
285.164
284.157
283.151
282.147
281.144
280.142
279.143
278.145
277.149
276.155
275.164
274.175
)
;

boundaryField
{
    left
    {
        type            fixedGradient;
        gradient        uniform 500;
    }
    right
    {
        type            uniformFixedValue;
        uniformValue    
        {
            type            sine;
            amplitude       
            {
                type            constant;
                value           20;
            }
            frequency       1.1574e-05;
            start           0;
            level           
            {
                type            constant;
                value           293;
            }
        }
        value           uniform 273.681;
    }
    frontAndBack
    {
        type            empty;
    }
    top_bottom
    {
        type            zeroGradient;
    }
}


// ************************************************************************* //
