/*--------------------------------*- C++ -*----------------------------------*\
  =========                 |
  \\      /  F ield         | OpenFOAM: The Open Source CFD Toolbox
   \\    /   O peration     | Website:  https://openfoam.org
    \\  /    A nd           | Version:  9
     \\/     M anipulation  |
\*---------------------------------------------------------------------------*/
FoamFile
{
    format      ascii;
    class       volScalarField;
    location    "68400";
    object      T_0;
}
// * * * * * * * * * * * * * * * * * * * * * * * * * * * * * * * * * * * * * //

dimensions      [0 0 0 1 0 0 0];

internalField   nonuniform List<scalar> 
100
(
373.953
372.953
371.953
370.953
369.952
368.952
367.952
366.951
365.95
364.95
363.949
362.948
361.947
360.945
359.944
358.943
357.941
356.939
355.937
354.935
353.933
352.931
351.928
350.925
349.922
348.919
347.916
346.912
345.908
344.904
343.899
342.894
341.889
340.884
339.878
338.872
337.866
336.859
335.852
334.845
333.837
332.829
331.82
330.811
329.802
328.792
327.782
326.771
325.76
324.749
323.737
322.725
321.712
320.699
319.685
318.671
317.657
316.642
315.627
314.611
313.595
312.579
311.562
310.545
309.528
308.51
307.493
306.474
305.456
304.438
303.419
302.4
301.381
300.362
299.343
298.324
297.306
296.287
295.268
294.25
293.232
292.214
291.197
290.18
289.164
288.149
287.134
286.12
285.107
284.095
283.084
282.074
281.065
280.058
279.052
278.048
277.045
276.045
275.046
274.05
)
;

boundaryField
{
    left
    {
        type            fixedGradient;
        gradient        uniform 500;
    }
    right
    {
        type            uniformFixedValue;
        uniformValue    
        {
            type            sine;
            amplitude       
            {
                type            constant;
                value           20;
            }
            frequency       1.1574e-05;
            start           0;
            level           
            {
                type            constant;
                value           293;
            }
        }
        value           uniform 273.552;
    }
    frontAndBack
    {
        type            empty;
    }
    top_bottom
    {
        type            zeroGradient;
    }
}


// ************************************************************************* //
