/*--------------------------------*- C++ -*----------------------------------*\
  =========                 |
  \\      /  F ield         | OpenFOAM: The Open Source CFD Toolbox
   \\    /   O peration     | Website:  https://openfoam.org
    \\  /    A nd           | Version:  9
     \\/     M anipulation  |
\*---------------------------------------------------------------------------*/
FoamFile
{
    format      ascii;
    class       volScalarField;
    location    "86400";
    object      ddt0(T);
}
// * * * * * * * * * * * * * * * * * * * * * * * * * * * * * * * * * * * * * //

dimensions      [0 0 -1 1 0 0 0];

internalField   nonuniform List<scalar> 
100
(
0.000287928
0.000288163
0.000288632
0.000289335
0.000290273
0.000291446
0.000292853
0.000294496
0.000296374
0.000298487
0.000300836
0.00030342
0.000306241
0.000309298
0.000312592
0.000316123
0.000319891
0.000323897
0.000328141
0.000332624
0.000337345
0.000342306
0.000347506
0.000352947
0.000358629
0.000364551
0.000370715
0.000377121
0.000383769
0.00039066
0.000397794
0.000405171
0.000412793
0.000420659
0.00042877
0.000437126
0.000445727
0.000454574
0.000463667
0.000473006
0.000482592
0.000492424
0.000502503
0.000512828
0.0005234
0.000534219
0.000545285
0.000556597
0.000568156
0.00057996
0.00059201
0.000604305
0.000616846
0.00062963
0.000642658
0.000655928
0.00066944
0.000683193
0.000697186
0.000711418
0.000725887
0.000740591
0.00075553
0.000770702
0.000786105
0.000801736
0.000817595
0.000833678
0.000849983
0.000866508
0.00088325
0.000900205
0.000917372
0.000934746
0.000952324
0.000970103
0.000988079
0.00100625
0.0010246
0.00104314
0.00106186
0.00108076
0.00109982
0.00111905
0.00113843
0.00115797
0.00117765
0.00119747
0.00121743
0.00123751
0.00125771
0.00127802
0.00129843
0.00131894
0.00133953
0.0013602
0.00138094
0.00140173
0.00142258
0.00144346
)
;

boundaryField
{
    left
    {
        type            calculated;
        value           uniform 0.000287928;
    }
    right
    {
        type            calculated;
        value           uniform 0.00145392;
    }
    frontAndBack
    {
        type            empty;
    }
    top_bottom
    {
        type            calculated;
        value           nonuniform List<scalar> 
200
(
0.000287928
0.000288163
0.000288632
0.000289335
0.000290273
0.000291446
0.000292853
0.000294496
0.000296374
0.000298487
0.000300836
0.00030342
0.000306241
0.000309298
0.000312592
0.000316123
0.000319891
0.000323897
0.000328141
0.000332624
0.000337345
0.000342306
0.000347506
0.000352947
0.000358629
0.000364551
0.000370715
0.000377121
0.000383769
0.00039066
0.000397794
0.000405171
0.000412793
0.000420659
0.00042877
0.000437126
0.000445727
0.000454574
0.000463667
0.000473006
0.000482592
0.000492424
0.000502503
0.000512828
0.0005234
0.000534219
0.000545285
0.000556597
0.000568156
0.00057996
0.00059201
0.000604305
0.000616846
0.00062963
0.000642658
0.000655928
0.00066944
0.000683193
0.000697186
0.000711418
0.000725887
0.000740591
0.00075553
0.000770702
0.000786105
0.000801736
0.000817595
0.000833678
0.000849983
0.000866508
0.00088325
0.000900205
0.000917372
0.000934746
0.000952324
0.000970103
0.000988079
0.00100625
0.0010246
0.00104314
0.00106186
0.00108076
0.00109982
0.00111905
0.00113843
0.00115797
0.00117765
0.00119747
0.00121743
0.00123751
0.00125771
0.00127802
0.00129843
0.00131894
0.00133953
0.0013602
0.00138094
0.00140173
0.00142258
0.00144346
0.000287928
0.000288163
0.000288632
0.000289335
0.000290273
0.000291446
0.000292853
0.000294496
0.000296374
0.000298487
0.000300836
0.00030342
0.000306241
0.000309298
0.000312592
0.000316123
0.000319891
0.000323897
0.000328141
0.000332624
0.000337345
0.000342306
0.000347506
0.000352947
0.000358629
0.000364551
0.000370715
0.000377121
0.000383769
0.00039066
0.000397794
0.000405171
0.000412793
0.000420659
0.00042877
0.000437126
0.000445727
0.000454574
0.000463667
0.000473006
0.000482592
0.000492424
0.000502503
0.000512828
0.0005234
0.000534219
0.000545285
0.000556597
0.000568156
0.00057996
0.00059201
0.000604305
0.000616846
0.00062963
0.000642658
0.000655928
0.00066944
0.000683193
0.000697186
0.000711418
0.000725887
0.000740591
0.00075553
0.000770702
0.000786105
0.000801736
0.000817595
0.000833678
0.000849983
0.000866508
0.00088325
0.000900205
0.000917372
0.000934746
0.000952324
0.000970103
0.000988079
0.00100625
0.0010246
0.00104314
0.00106186
0.00108076
0.00109982
0.00111905
0.00113843
0.00115797
0.00117765
0.00119747
0.00121743
0.00123751
0.00125771
0.00127802
0.00129843
0.00131894
0.00133953
0.0013602
0.00138094
0.00140173
0.00142258
0.00144346
)
;
    }
}


// ************************************************************************* //
