/*--------------------------------*- C++ -*----------------------------------*\
  =========                 |
  \\      /  F ield         | OpenFOAM: The Open Source CFD Toolbox
   \\    /   O peration     | Website:  https://openfoam.org
    \\  /    A nd           | Version:  9
     \\/     M anipulation  |
\*---------------------------------------------------------------------------*/
FoamFile
{
    format      ascii;
    class       volScalarField;
    location    "86400";
    object      gradTx;
}
// * * * * * * * * * * * * * * * * * * * * * * * * * * * * * * * * * * * * * //

dimensions      [0 -1 0 1 0 0 0];

internalField   nonuniform List<scalar> 
100
(
-499.482
-498.447
-497.41
-496.371
-495.329
-494.284
-493.234
-492.179
-491.118
-490.05
-488.974
-487.89
-486.796
-485.692
-484.577
-483.45
-482.311
-481.158
-479.991
-478.808
-477.61
-476.395
-475.163
-473.912
-472.642
-471.351
-470.04
-468.707
-467.352
-465.973
-464.57
-463.142
-461.687
-460.207
-458.698
-457.161
-455.595
-453.999
-452.371
-450.712
-449.021
-447.295
-445.536
-443.741
-441.91
-440.043
-438.138
-436.194
-434.211
-432.187
-430.123
-428.017
-425.868
-423.675
-421.439
-419.157
-416.829
-414.454
-412.031
-409.561
-407.041
-404.471
-401.85
-399.177
-396.453
-393.675
-390.843
-387.957
-385.015
-382.017
-378.963
-375.85
-372.68
-369.451
-366.162
-362.813
-359.403
-355.931
-352.397
-348.801
-345.141
-341.417
-337.629
-333.776
-329.857
-325.873
-321.822
-317.704
-313.518
-309.265
-304.944
-300.555
-296.097
-291.569
-286.973
-282.307
-277.571
-272.766
-267.89
-262.945
)
;

boundaryField
{
    left
    {
        type            calculated;
        value           uniform -500;
    }
    right
    {
        type            calculated;
        value           uniform -260.455;
    }
    frontAndBack
    {
        type            empty;
    }
    top_bottom
    {
        type            calculated;
        value           nonuniform List<scalar> 
200
(
-499.482
-498.447
-497.41
-496.371
-495.329
-494.284
-493.234
-492.179
-491.118
-490.05
-488.974
-487.89
-486.796
-485.692
-484.577
-483.45
-482.311
-481.158
-479.991
-478.808
-477.61
-476.395
-475.163
-473.912
-472.642
-471.351
-470.04
-468.707
-467.352
-465.973
-464.57
-463.142
-461.687
-460.207
-458.698
-457.161
-455.595
-453.999
-452.371
-450.712
-449.021
-447.295
-445.536
-443.741
-441.91
-440.043
-438.138
-436.194
-434.211
-432.187
-430.123
-428.017
-425.868
-423.675
-421.439
-419.157
-416.829
-414.454
-412.031
-409.561
-407.041
-404.471
-401.85
-399.177
-396.453
-393.675
-390.843
-387.957
-385.015
-382.017
-378.963
-375.85
-372.68
-369.451
-366.162
-362.813
-359.403
-355.931
-352.397
-348.801
-345.141
-341.417
-337.629
-333.776
-329.857
-325.873
-321.822
-317.704
-313.518
-309.265
-304.944
-300.555
-296.097
-291.569
-286.973
-282.307
-277.571
-272.766
-267.89
-262.945
-499.482
-498.447
-497.41
-496.371
-495.329
-494.284
-493.234
-492.179
-491.118
-490.05
-488.974
-487.89
-486.796
-485.692
-484.577
-483.45
-482.311
-481.158
-479.991
-478.808
-477.61
-476.395
-475.163
-473.912
-472.642
-471.351
-470.04
-468.707
-467.352
-465.973
-464.57
-463.142
-461.687
-460.207
-458.698
-457.161
-455.595
-453.999
-452.371
-450.712
-449.021
-447.295
-445.536
-443.741
-441.91
-440.043
-438.138
-436.194
-434.211
-432.187
-430.123
-428.017
-425.868
-423.675
-421.439
-419.157
-416.829
-414.454
-412.031
-409.561
-407.041
-404.471
-401.85
-399.177
-396.453
-393.675
-390.843
-387.957
-385.015
-382.017
-378.963
-375.85
-372.68
-369.451
-366.162
-362.813
-359.403
-355.931
-352.397
-348.801
-345.141
-341.417
-337.629
-333.776
-329.857
-325.873
-321.822
-317.704
-313.518
-309.265
-304.944
-300.555
-296.097
-291.569
-286.973
-282.307
-277.571
-272.766
-267.89
-262.945
)
;
    }
}


// ************************************************************************* //
