/*--------------------------------*- C++ -*----------------------------------*\
  =========                 |
  \\      /  F ield         | OpenFOAM: The Open Source CFD Toolbox
   \\    /   O peration     | Website:  https://openfoam.org
    \\  /    A nd           | Version:  9
     \\/     M anipulation  |
\*---------------------------------------------------------------------------*/
FoamFile
{
    format      ascii;
    class       volScalarField;
    location    "86400";
    object      T;
}
// * * * * * * * * * * * * * * * * * * * * * * * * * * * * * * * * * * * * * //

dimensions      [0 0 0 1 0 0 0];

internalField   nonuniform List<scalar> 
100
(
375.309
374.311
373.315
372.321
371.33
370.34
369.352
368.367
367.384
366.403
365.424
364.447
363.472
362.499
361.529
360.561
359.595
358.632
357.671
356.712
355.756
354.802
353.85
352.901
351.954
351.01
350.069
349.13
348.194
347.261
346.33
345.402
344.478
343.556
342.637
341.721
340.808
339.899
338.992
338.089
337.189
336.293
335.4
334.511
333.625
332.743
331.865
330.991
330.12
329.254
328.391
327.533
326.679
325.83
324.985
324.144
323.308
322.477
321.65
320.829
320.012
319.2
318.394
317.593
316.797
316.007
315.223
314.444
313.671
312.904
312.143
311.388
310.639
309.897
309.162
308.433
307.71
306.995
306.287
305.585
304.891
304.205
303.526
302.854
302.191
301.535
300.887
300.248
299.616
298.994
298.379
297.774
297.177
296.589
296.011
295.441
294.882
294.331
293.791
293.26
)
;

boundaryField
{
    left
    {
        type            fixedGradient;
        gradient        uniform 500;
    }
    right
    {
        type            uniformFixedValue;
        uniformValue    
        {
            type            sine;
            amplitude       
            {
                type            constant;
                value           20;
            }
            frequency       1.1574e-05;
            start           0;
            level           
            {
                type            constant;
                value           293;
            }
        }
        value           uniform 292.999;
    }
    frontAndBack
    {
        type            empty;
    }
    top_bottom
    {
        type            zeroGradient;
    }
}


// ************************************************************************* //
