/*--------------------------------*- C++ -*----------------------------------*\
  =========                 |
  \\      /  F ield         | OpenFOAM: The Open Source CFD Toolbox
   \\    /   O peration     | Website:  https://openfoam.org
    \\  /    A nd           | Version:  9
     \\/     M anipulation  |
\*---------------------------------------------------------------------------*/
FoamFile
{
    format      ascii;
    class       volScalarField;
    location    "86400";
    object      T_0;
}
// * * * * * * * * * * * * * * * * * * * * * * * * * * * * * * * * * * * * * //

dimensions      [0 0 0 1 0 0 0];

internalField   nonuniform List<scalar> 
100
(
375.203
374.205
373.209
372.215
371.222
370.232
369.244
368.258
367.274
366.293
365.313
364.335
363.359
362.386
361.414
360.445
359.478
358.513
357.55
356.59
355.631
354.676
353.722
352.771
351.823
350.876
349.933
348.992
348.053
347.117
346.184
345.254
344.326
343.402
342.48
341.561
340.645
339.732
338.823
337.916
337.013
336.113
335.217
334.324
333.434
332.548
331.666
330.788
329.913
329.042
328.176
327.313
326.455
325.601
324.751
323.905
323.064
322.228
321.397
320.57
319.748
318.931
318.12
317.313
316.512
315.716
314.926
314.141
313.363
312.59
311.823
311.062
310.307
309.559
308.817
308.081
307.353
306.631
305.916
305.208
304.507
303.814
303.128
302.45
301.779
301.117
300.462
299.815
299.177
298.547
297.925
297.313
296.709
296.114
295.528
294.951
294.384
293.826
293.278
292.74
)
;

boundaryField
{
    left
    {
        type            fixedGradient;
        gradient        uniform 500;
    }
    right
    {
        type            uniformFixedValue;
        uniformValue    
        {
            type            sine;
            amplitude       
            {
                type            constant;
                value           20;
            }
            frequency       1.1574e-05;
            start           0;
            level           
            {
                type            constant;
                value           293;
            }
        }
        value           uniform 292.476;
    }
    frontAndBack
    {
        type            empty;
    }
    top_bottom
    {
        type            zeroGradient;
    }
}


// ************************************************************************* //
