/*--------------------------------*- C++ -*----------------------------------*\
  =========                 |
  \\      /  F ield         | OpenFOAM: The Open Source CFD Toolbox
   \\    /   O peration     | Website:  https://openfoam.org
    \\  /    A nd           | Version:  9
     \\/     M anipulation  |
\*---------------------------------------------------------------------------*/
FoamFile
{
    format      ascii;
    class       volScalarField;
    location    "25200";
    object      ddt0(T);
}
// * * * * * * * * * * * * * * * * * * * * * * * * * * * * * * * * * * * * * //

dimensions      [0 0 -1 1 0 0 0];

internalField   nonuniform List<scalar> 
100
(
0.00339262
0.00339187
0.00339038
0.00338813
0.00338514
0.00338139
0.0033769
0.00337166
0.00336567
0.00335894
0.00335145
0.00334322
0.00333424
0.0033245
0.00331403
0.0033028
0.00329082
0.0032781
0.00326462
0.0032504
0.00323543
0.00321971
0.00320325
0.00318603
0.00316807
0.00314936
0.0031299
0.00310969
0.00308873
0.00306703
0.00304458
0.00302138
0.00299743
0.00297273
0.00294729
0.0029211
0.00289416
0.00286648
0.00283804
0.00280886
0.00277893
0.00274826
0.00271684
0.00268467
0.00265175
0.00261809
0.00258368
0.00254853
0.00251263
0.00247598
0.00243859
0.00240045
0.00236157
0.00232194
0.00228157
0.00224045
0.00219859
0.00215599
0.00211264
0.00206855
0.00202371
0.00197814
0.00193182
0.00188475
0.00183695
0.0017884
0.00173912
0.00168909
0.00163832
0.00158681
0.00153457
0.00148158
0.00142786
0.0013734
0.0013182
0.00126226
0.00120559
0.00114818
0.00109004
0.00103117
0.000971556
0.000911214
0.000850139
0.000788333
0.000725797
0.000662531
0.000598536
0.000533813
0.000468364
0.000402189
0.000335288
0.000267665
0.000199319
0.000130251
6.04635e-05
-1.00428e-05
-8.12663e-05
-0.000153206
-0.000225859
-0.000299226
)
;

boundaryField
{
    left
    {
        type            calculated;
        value           uniform 0.00339262;
    }
    right
    {
        type            calculated;
        value           uniform -0.000336264;
    }
    frontAndBack
    {
        type            empty;
    }
    top_bottom
    {
        type            calculated;
        value           nonuniform List<scalar> 
200
(
0.00339262
0.00339187
0.00339038
0.00338813
0.00338514
0.00338139
0.0033769
0.00337166
0.00336567
0.00335894
0.00335145
0.00334322
0.00333424
0.0033245
0.00331403
0.0033028
0.00329082
0.0032781
0.00326462
0.0032504
0.00323543
0.00321971
0.00320325
0.00318603
0.00316807
0.00314936
0.0031299
0.00310969
0.00308873
0.00306703
0.00304458
0.00302138
0.00299743
0.00297273
0.00294729
0.0029211
0.00289416
0.00286648
0.00283804
0.00280886
0.00277893
0.00274826
0.00271684
0.00268467
0.00265175
0.00261809
0.00258368
0.00254853
0.00251263
0.00247598
0.00243859
0.00240045
0.00236157
0.00232194
0.00228157
0.00224045
0.00219859
0.00215599
0.00211264
0.00206855
0.00202371
0.00197814
0.00193182
0.00188475
0.00183695
0.0017884
0.00173912
0.00168909
0.00163832
0.00158681
0.00153457
0.00148158
0.00142786
0.0013734
0.0013182
0.00126226
0.00120559
0.00114818
0.00109004
0.00103117
0.000971556
0.000911214
0.000850139
0.000788333
0.000725797
0.000662531
0.000598536
0.000533813
0.000468364
0.000402189
0.000335288
0.000267665
0.000199319
0.000130251
6.04635e-05
-1.00428e-05
-8.12663e-05
-0.000153206
-0.000225859
-0.000299226
0.00339262
0.00339187
0.00339038
0.00338813
0.00338514
0.00338139
0.0033769
0.00337166
0.00336567
0.00335894
0.00335145
0.00334322
0.00333424
0.0033245
0.00331403
0.0033028
0.00329082
0.0032781
0.00326462
0.0032504
0.00323543
0.00321971
0.00320325
0.00318603
0.00316807
0.00314936
0.0031299
0.00310969
0.00308873
0.00306703
0.00304458
0.00302138
0.00299743
0.00297273
0.00294729
0.0029211
0.00289416
0.00286648
0.00283804
0.00280886
0.00277893
0.00274826
0.00271684
0.00268467
0.00265175
0.00261809
0.00258368
0.00254853
0.00251263
0.00247598
0.00243859
0.00240045
0.00236157
0.00232194
0.00228157
0.00224045
0.00219859
0.00215599
0.00211264
0.00206855
0.00202371
0.00197814
0.00193182
0.00188475
0.00183695
0.0017884
0.00173912
0.00168909
0.00163832
0.00158681
0.00153457
0.00148158
0.00142786
0.0013734
0.0013182
0.00126226
0.00120559
0.00114818
0.00109004
0.00103117
0.000971556
0.000911214
0.000850139
0.000788333
0.000725797
0.000662531
0.000598536
0.000533813
0.000468364
0.000402189
0.000335288
0.000267665
0.000199319
0.000130251
6.04635e-05
-1.00428e-05
-8.12663e-05
-0.000153206
-0.000225859
-0.000299226
)
;
    }
}


// ************************************************************************* //
