/*--------------------------------*- C++ -*----------------------------------*\
  =========                 |
  \\      /  F ield         | OpenFOAM: The Open Source CFD Toolbox
   \\    /   O peration     | Website:  https://openfoam.org
    \\  /    A nd           | Version:  9
     \\/     M anipulation  |
\*---------------------------------------------------------------------------*/
FoamFile
{
    format      ascii;
    class       volScalarField;
    location    "25200";
    object      gradTx;
}
// * * * * * * * * * * * * * * * * * * * * * * * * * * * * * * * * * * * * * //

dimensions      [0 -1 0 1 0 0 0];

internalField   nonuniform List<scalar> 
100
(
-494.218
-482.655
-471.097
-459.544
-448.001
-436.469
-424.952
-413.451
-401.97
-390.51
-379.075
-367.667
-356.289
-344.943
-333.632
-322.359
-311.125
-299.934
-288.788
-277.69
-266.642
-255.648
-244.708
-233.827
-223.006
-212.249
-201.557
-190.934
-180.382
-169.903
-159.5
-149.176
-138.933
-128.775
-118.702
-108.719
-98.8271
-89.0295
-79.3286
-69.727
-60.2273
-50.8321
-41.5439
-32.3653
-23.2989
-14.3473
-5.51299
3.2014
11.7933
20.2602
28.5995
36.8085
44.8849
52.8259
60.629
68.2917
75.8113
83.1854
90.4114
97.4866
104.409
111.175
117.782
124.229
130.513
136.63
142.579
148.356
153.96
159.388
164.636
169.704
174.587
179.284
183.793
188.109
192.232
196.158
199.885
203.41
206.731
209.846
212.751
215.445
217.924
220.187
222.23
224.052
225.649
227.02
228.161
229.071
229.747
230.186
230.385
230.343
230.057
229.525
228.743
227.71
)
;

boundaryField
{
    left
    {
        type            calculated;
        value           uniform -500;
    }
    right
    {
        type            calculated;
        value           uniform 227.131;
    }
    frontAndBack
    {
        type            empty;
    }
    top_bottom
    {
        type            calculated;
        value           nonuniform List<scalar> 
200
(
-494.218
-482.655
-471.097
-459.544
-448.001
-436.469
-424.952
-413.451
-401.97
-390.51
-379.075
-367.667
-356.289
-344.943
-333.632
-322.359
-311.125
-299.934
-288.788
-277.69
-266.642
-255.648
-244.708
-233.827
-223.006
-212.249
-201.557
-190.934
-180.382
-169.903
-159.5
-149.176
-138.933
-128.775
-118.702
-108.719
-98.8271
-89.0295
-79.3286
-69.727
-60.2273
-50.8321
-41.5439
-32.3653
-23.2989
-14.3473
-5.51299
3.2014
11.7933
20.2602
28.5995
36.8085
44.8849
52.8259
60.629
68.2917
75.8113
83.1854
90.4114
97.4866
104.409
111.175
117.782
124.229
130.513
136.63
142.579
148.356
153.96
159.388
164.636
169.704
174.587
179.284
183.793
188.109
192.232
196.158
199.885
203.41
206.731
209.846
212.751
215.445
217.924
220.187
222.23
224.052
225.649
227.02
228.161
229.071
229.747
230.186
230.385
230.343
230.057
229.525
228.743
227.71
-494.218
-482.655
-471.097
-459.544
-448.001
-436.469
-424.952
-413.451
-401.97
-390.51
-379.075
-367.667
-356.289
-344.943
-333.632
-322.359
-311.125
-299.934
-288.788
-277.69
-266.642
-255.648
-244.708
-233.827
-223.006
-212.249
-201.557
-190.934
-180.382
-169.903
-159.5
-149.176
-138.933
-128.775
-118.702
-108.719
-98.8271
-89.0295
-79.3286
-69.727
-60.2273
-50.8321
-41.5439
-32.3653
-23.2989
-14.3473
-5.51299
3.2014
11.7933
20.2602
28.5995
36.8085
44.8849
52.8259
60.629
68.2917
75.8113
83.1854
90.4114
97.4866
104.409
111.175
117.782
124.229
130.513
136.63
142.579
148.356
153.96
159.388
164.636
169.704
174.587
179.284
183.793
188.109
192.232
196.158
199.885
203.41
206.731
209.846
212.751
215.445
217.924
220.187
222.23
224.052
225.649
227.02
228.161
229.071
229.747
230.186
230.385
230.343
230.057
229.525
228.743
227.71
)
;
    }
}


// ************************************************************************* //
