/*--------------------------------*- C++ -*----------------------------------*\
  =========                 |
  \\      /  F ield         | OpenFOAM: The Open Source CFD Toolbox
   \\    /   O peration     | Website:  https://openfoam.org
    \\  /    A nd           | Version:  9
     \\/     M anipulation  |
\*---------------------------------------------------------------------------*/
FoamFile
{
    format      ascii;
    class       volScalarField;
    location    "25200";
    object      T;
}
// * * * * * * * * * * * * * * * * * * * * * * * * * * * * * * * * * * * * * //

dimensions      [0 0 0 1 0 0 0];

internalField   nonuniform List<scalar> 
100
(
317.661
316.684
315.731
314.8
313.892
313.008
312.147
311.308
310.493
309.7
308.931
308.184
307.46
306.759
306.08
305.424
304.791
304.18
303.591
303.025
302.48
301.958
301.458
300.979
300.522
300.087
299.673
299.281
298.91
298.559
298.23
297.921
297.633
297.366
297.118
296.891
296.683
296.496
296.327
296.178
296.048
295.937
295.845
295.771
295.716
295.678
295.658
295.656
295.671
295.703
295.752
295.817
295.899
295.997
296.111
296.24
296.384
296.543
296.716
296.904
297.106
297.322
297.551
297.793
298.048
298.315
298.595
298.886
299.188
299.501
299.826
300.16
300.504
300.858
301.221
301.593
301.974
302.362
302.759
303.162
303.572
303.989
304.412
304.84
305.273
305.712
306.154
306.6
307.05
307.503
307.958
308.416
308.875
309.335
309.795
310.256
310.717
311.176
311.635
312.091
)
;

boundaryField
{
    left
    {
        type            fixedGradient;
        gradient        uniform 500;
    }
    right
    {
        type            uniformFixedValue;
        uniformValue    
        {
            type            sine;
            amplitude       
            {
                type            constant;
                value           20;
            }
            frequency       1.1574e-05;
            start           0;
            level           
            {
                type            constant;
                value           293;
            }
        }
        value           uniform 312.319;
    }
    frontAndBack
    {
        type            empty;
    }
    top_bottom
    {
        type            zeroGradient;
    }
}


// ************************************************************************* //
