/*--------------------------------*- C++ -*----------------------------------*\
  =========                 |
  \\      /  F ield         | OpenFOAM: The Open Source CFD Toolbox
   \\    /   O peration     | Website:  https://openfoam.org
    \\  /    A nd           | Version:  9
     \\/     M anipulation  |
\*---------------------------------------------------------------------------*/
FoamFile
{
    format      ascii;
    class       volScalarField;
    location    "25200";
    object      T_0;
}
// * * * * * * * * * * * * * * * * * * * * * * * * * * * * * * * * * * * * * //

dimensions      [0 0 0 1 0 0 0];

internalField   nonuniform List<scalar> 
100
(
316.448
315.472
314.518
313.588
312.682
311.799
310.939
310.103
309.289
308.499
307.732
306.989
306.268
305.57
304.895
304.244
303.614
303.008
302.424
301.863
301.324
300.807
300.313
299.84
299.39
298.962
298.555
298.17
297.806
297.464
297.142
296.842
296.563
296.304
296.065
295.848
295.65
295.472
295.314
295.175
295.056
294.956
294.875
294.813
294.769
294.744
294.736
294.747
294.775
294.82
294.882
294.962
295.057
295.169
295.297
295.441
295.6
295.775
295.964
296.168
296.386
296.618
296.864
297.123
297.395
297.68
297.977
298.286
298.606
298.938
299.281
299.635
299.998
300.372
300.755
301.147
301.548
301.957
302.374
302.799
303.23
303.669
304.114
304.564
305.02
305.481
305.947
306.416
306.89
307.366
307.846
308.327
308.811
309.296
309.782
310.268
310.754
311.239
311.724
312.207
)
;

boundaryField
{
    left
    {
        type            fixedGradient;
        gradient        uniform 500;
    }
    right
    {
        type            uniformFixedValue;
        uniformValue    
        {
            type            sine;
            amplitude       
            {
                type            constant;
                value           20;
            }
            frequency       1.1574e-05;
            start           0;
            level           
            {
                type            constant;
                value           293;
            }
        }
        value           uniform 312.447;
    }
    frontAndBack
    {
        type            empty;
    }
    top_bottom
    {
        type            zeroGradient;
    }
}


// ************************************************************************* //
