/*--------------------------------*- C++ -*----------------------------------*\
  =========                 |
  \\      /  F ield         | OpenFOAM: The Open Source CFD Toolbox
   \\    /   O peration     | Website:  https://openfoam.org
    \\  /    A nd           | Version:  9
     \\/     M anipulation  |
\*---------------------------------------------------------------------------*/
FoamFile
{
    format      ascii;
    class       volScalarField;
    location    "61200";
    object      ddt0(T);
}
// * * * * * * * * * * * * * * * * * * * * * * * * * * * * * * * * * * * * * //

dimensions      [0 0 -1 1 0 0 0];

internalField   nonuniform List<scalar> 
100
(
0.000176618
0.000176334
0.000175767
0.000174917
0.000173784
0.00017237
0.000170675
0.0001687
0.000166448
0.000163919
0.000161115
0.000158038
0.00015469
0.000151074
0.000147193
0.000143048
0.000138643
0.000133981
0.000129066
0.000123901
0.000118489
0.000112835
0.000106942
0.000100816
9.44605e-05
8.78803e-05
8.10803e-05
7.40657e-05
6.68419e-05
5.94144e-05
5.17889e-05
4.39713e-05
3.59678e-05
2.77846e-05
1.94284e-05
1.09059e-05
2.22399e-06
-6.6102e-06
-1.55893e-05
-2.47058e-05
-3.39519e-05
-4.33198e-05
-5.28012e-05
-6.23878e-05
-7.2071e-05
-8.18421e-05
-9.16922e-05
-0.000101612
-0.000111592
-0.000121623
-0.000131696
-0.000141799
-0.000151923
-0.000162058
-0.000172193
-0.000182317
-0.00019242
-0.000202489
-0.000212514
-0.000222483
-0.000232385
-0.000242207
-0.000251937
-0.000261563
-0.000271072
-0.000280451
-0.000289688
-0.00029877
-0.000307682
-0.000316411
-0.000324945
-0.000333268
-0.000341367
-0.000349227
-0.000356833
-0.000364172
-0.000371228
-0.000377987
-0.000384432
-0.000390549
-0.000396322
-0.000401735
-0.000406772
-0.000411417
-0.000415654
-0.000419467
-0.000422838
-0.000425752
-0.00042819
-0.000430137
-0.000431574
-0.000432485
-0.000432852
-0.000432656
-0.000431881
-0.000430509
-0.000428521
-0.000425899
-0.000422625
-0.00041868
)
;

boundaryField
{
    left
    {
        type            calculated;
        value           uniform 0.000176618;
    }
    right
    {
        type            calculated;
        value           uniform -0.000416363;
    }
    frontAndBack
    {
        type            empty;
    }
    top_bottom
    {
        type            calculated;
        value           nonuniform List<scalar> 
200
(
0.000176618
0.000176334
0.000175767
0.000174917
0.000173784
0.00017237
0.000170675
0.0001687
0.000166448
0.000163919
0.000161115
0.000158038
0.00015469
0.000151074
0.000147193
0.000143048
0.000138643
0.000133981
0.000129066
0.000123901
0.000118489
0.000112835
0.000106942
0.000100816
9.44605e-05
8.78803e-05
8.10803e-05
7.40657e-05
6.68419e-05
5.94144e-05
5.17889e-05
4.39713e-05
3.59678e-05
2.77846e-05
1.94284e-05
1.09059e-05
2.22399e-06
-6.6102e-06
-1.55893e-05
-2.47058e-05
-3.39519e-05
-4.33198e-05
-5.28012e-05
-6.23878e-05
-7.2071e-05
-8.18421e-05
-9.16922e-05
-0.000101612
-0.000111592
-0.000121623
-0.000131696
-0.000141799
-0.000151923
-0.000162058
-0.000172193
-0.000182317
-0.00019242
-0.000202489
-0.000212514
-0.000222483
-0.000232385
-0.000242207
-0.000251937
-0.000261563
-0.000271072
-0.000280451
-0.000289688
-0.00029877
-0.000307682
-0.000316411
-0.000324945
-0.000333268
-0.000341367
-0.000349227
-0.000356833
-0.000364172
-0.000371228
-0.000377987
-0.000384432
-0.000390549
-0.000396322
-0.000401735
-0.000406772
-0.000411417
-0.000415654
-0.000419467
-0.000422838
-0.000425752
-0.00042819
-0.000430137
-0.000431574
-0.000432485
-0.000432852
-0.000432656
-0.000431881
-0.000430509
-0.000428521
-0.000425899
-0.000422625
-0.00041868
0.000176618
0.000176334
0.000175767
0.000174917
0.000173784
0.00017237
0.000170675
0.0001687
0.000166448
0.000163919
0.000161115
0.000158038
0.00015469
0.000151074
0.000147193
0.000143048
0.000138643
0.000133981
0.000129066
0.000123901
0.000118489
0.000112835
0.000106942
0.000100816
9.44605e-05
8.78803e-05
8.10803e-05
7.40657e-05
6.68419e-05
5.94144e-05
5.17889e-05
4.39713e-05
3.59678e-05
2.77846e-05
1.94284e-05
1.09059e-05
2.22399e-06
-6.6102e-06
-1.55893e-05
-2.47058e-05
-3.39519e-05
-4.33198e-05
-5.28012e-05
-6.23878e-05
-7.2071e-05
-8.18421e-05
-9.16922e-05
-0.000101612
-0.000111592
-0.000121623
-0.000131696
-0.000141799
-0.000151923
-0.000162058
-0.000172193
-0.000182317
-0.00019242
-0.000202489
-0.000212514
-0.000222483
-0.000232385
-0.000242207
-0.000251937
-0.000261563
-0.000271072
-0.000280451
-0.000289688
-0.00029877
-0.000307682
-0.000316411
-0.000324945
-0.000333268
-0.000341367
-0.000349227
-0.000356833
-0.000364172
-0.000371228
-0.000377987
-0.000384432
-0.000390549
-0.000396322
-0.000401735
-0.000406772
-0.000411417
-0.000415654
-0.000419467
-0.000422838
-0.000425752
-0.00042819
-0.000430137
-0.000431574
-0.000432485
-0.000432852
-0.000432656
-0.000431881
-0.000430509
-0.000428521
-0.000425899
-0.000422625
-0.00041868
)
;
    }
}


// ************************************************************************* //
