/*--------------------------------*- C++ -*----------------------------------*\
  =========                 |
  \\      /  F ield         | OpenFOAM: The Open Source CFD Toolbox
   \\    /   O peration     | Website:  https://openfoam.org
    \\  /    A nd           | Version:  9
     \\/     M anipulation  |
\*---------------------------------------------------------------------------*/
FoamFile
{
    format      ascii;
    class       volScalarField;
    location    "61200";
    object      gradTx;
}
// * * * * * * * * * * * * * * * * * * * * * * * * * * * * * * * * * * * * * //

dimensions      [0 -1 0 1 0 0 0];

internalField   nonuniform List<scalar> 
100
(
-499.72
-499.162
-498.605
-498.05
-497.498
-496.951
-496.409
-495.873
-495.344
-494.823
-494.311
-493.808
-493.316
-492.836
-492.369
-491.914
-491.474
-491.049
-490.639
-490.247
-489.872
-489.515
-489.178
-488.86
-488.563
-488.288
-488.034
-487.804
-487.597
-487.414
-487.257
-487.124
-487.018
-486.939
-486.887
-486.863
-486.867
-486.9
-486.963
-487.055
-487.178
-487.331
-487.516
-487.731
-487.979
-488.258
-488.569
-488.913
-489.29
-489.699
-490.141
-490.616
-491.124
-491.666
-492.24
-492.847
-493.487
-494.16
-494.865
-495.603
-496.373
-497.175
-498.008
-498.872
-499.767
-500.693
-501.648
-502.632
-503.645
-504.686
-505.754
-506.849
-507.969
-509.115
-510.284
-511.477
-512.691
-513.927
-515.183
-516.458
-517.75
-519.059
-520.383
-521.721
-523.071
-524.432
-525.802
-527.181
-528.565
-529.954
-531.346
-532.738
-534.13
-535.519
-536.903
-538.28
-539.648
-541.004
-542.348
-543.675
)
;

boundaryField
{
    left
    {
        type            calculated;
        value           uniform -500;
    }
    right
    {
        type            calculated;
        value           uniform -544.335;
    }
    frontAndBack
    {
        type            empty;
    }
    top_bottom
    {
        type            calculated;
        value           nonuniform List<scalar> 
200
(
-499.72
-499.162
-498.605
-498.05
-497.498
-496.951
-496.409
-495.873
-495.344
-494.823
-494.311
-493.808
-493.316
-492.836
-492.369
-491.914
-491.474
-491.049
-490.639
-490.247
-489.872
-489.515
-489.178
-488.86
-488.563
-488.288
-488.034
-487.804
-487.597
-487.414
-487.257
-487.124
-487.018
-486.939
-486.887
-486.863
-486.867
-486.9
-486.963
-487.055
-487.178
-487.331
-487.516
-487.731
-487.979
-488.258
-488.569
-488.913
-489.29
-489.699
-490.141
-490.616
-491.124
-491.666
-492.24
-492.847
-493.487
-494.16
-494.865
-495.603
-496.373
-497.175
-498.008
-498.872
-499.767
-500.693
-501.648
-502.632
-503.645
-504.686
-505.754
-506.849
-507.969
-509.115
-510.284
-511.477
-512.691
-513.927
-515.183
-516.458
-517.75
-519.059
-520.383
-521.721
-523.071
-524.432
-525.802
-527.181
-528.565
-529.954
-531.346
-532.738
-534.13
-535.519
-536.903
-538.28
-539.648
-541.004
-542.348
-543.675
-499.72
-499.162
-498.605
-498.05
-497.498
-496.951
-496.409
-495.873
-495.344
-494.823
-494.311
-493.808
-493.316
-492.836
-492.369
-491.914
-491.474
-491.049
-490.639
-490.247
-489.872
-489.515
-489.178
-488.86
-488.563
-488.288
-488.034
-487.804
-487.597
-487.414
-487.257
-487.124
-487.018
-486.939
-486.887
-486.863
-486.867
-486.9
-486.963
-487.055
-487.178
-487.331
-487.516
-487.731
-487.979
-488.258
-488.569
-488.913
-489.29
-489.699
-490.141
-490.616
-491.124
-491.666
-492.24
-492.847
-493.487
-494.16
-494.865
-495.603
-496.373
-497.175
-498.008
-498.872
-499.767
-500.693
-501.648
-502.632
-503.645
-504.686
-505.754
-506.849
-507.969
-509.115
-510.284
-511.477
-512.691
-513.927
-515.183
-516.458
-517.75
-519.059
-520.383
-521.721
-523.071
-524.432
-525.802
-527.181
-528.565
-529.954
-531.346
-532.738
-534.13
-535.519
-536.903
-538.28
-539.648
-541.004
-542.348
-543.675
)
;
    }
}


// ************************************************************************* //
