/*--------------------------------*- C++ -*----------------------------------*\
  =========                 |
  \\      /  F ield         | OpenFOAM: The Open Source CFD Toolbox
   \\    /   O peration     | Website:  https://openfoam.org
    \\  /    A nd           | Version:  9
     \\/     M anipulation  |
\*---------------------------------------------------------------------------*/
FoamFile
{
    format      ascii;
    class       volScalarField;
    location    "61200";
    object      T;
}
// * * * * * * * * * * * * * * * * * * * * * * * * * * * * * * * * * * * * * //

dimensions      [0 0 0 1 0 0 0];

internalField   nonuniform List<scalar> 
100
(
373.552
372.553
371.556
370.559
369.563
368.569
367.576
366.583
365.592
364.602
363.613
362.625
361.638
360.651
359.666
358.682
357.699
356.716
355.734
354.754
353.773
352.794
351.815
350.837
349.86
348.883
347.907
346.931
345.956
344.981
344.006
343.032
342.057
341.083
340.11
339.136
338.162
337.188
336.215
335.241
334.266
333.292
332.317
331.342
330.366
329.39
328.413
327.436
326.457
325.478
324.499
323.518
322.536
321.553
320.57
319.584
318.598
317.61
316.621
315.631
314.639
313.646
312.65
311.654
310.655
309.654
308.652
307.648
306.642
305.633
304.623
303.61
302.595
301.578
300.559
299.537
298.513
297.486
296.457
295.426
294.392
293.355
292.315
291.273
290.228
289.181
288.131
287.078
286.022
284.963
283.902
282.838
281.771
280.702
279.629
278.554
277.476
276.395
275.312
274.226
)
;

boundaryField
{
    left
    {
        type            fixedGradient;
        gradient        uniform 500;
    }
    right
    {
        type            uniformFixedValue;
        uniformValue    
        {
            type            sine;
            amplitude       
            {
                type            constant;
                value           20;
            }
            frequency       1.1574e-05;
            start           0;
            level           
            {
                type            constant;
                value           293;
            }
        }
        value           uniform 273.682;
    }
    frontAndBack
    {
        type            empty;
    }
    top_bottom
    {
        type            zeroGradient;
    }
}


// ************************************************************************* //
