/*--------------------------------*- C++ -*----------------------------------*\
  =========                 |
  \\      /  F ield         | OpenFOAM: The Open Source CFD Toolbox
   \\    /   O peration     | Website:  https://openfoam.org
    \\  /    A nd           | Version:  9
     \\/     M anipulation  |
\*---------------------------------------------------------------------------*/
FoamFile
{
    format      ascii;
    class       volScalarField;
    location    "61200";
    object      T_0;
}
// * * * * * * * * * * * * * * * * * * * * * * * * * * * * * * * * * * * * * //

dimensions      [0 0 0 1 0 0 0];

internalField   nonuniform List<scalar> 
100
(
373.492
372.493
371.495
370.499
369.504
368.51
367.517
366.526
365.535
364.546
363.558
362.571
361.585
360.6
359.616
358.633
357.651
356.671
355.691
354.712
353.733
352.756
351.779
350.804
349.828
348.854
347.88
346.907
345.934
344.961
343.989
343.018
342.046
341.075
340.104
339.134
338.163
337.192
336.222
335.251
334.28
333.309
332.337
331.365
330.393
329.42
328.447
327.473
326.498
325.523
324.546
323.569
322.591
321.612
320.631
319.65
318.667
317.683
316.697
315.71
314.722
313.732
312.74
311.746
310.751
309.754
308.755
307.753
306.75
305.745
304.737
303.728
302.716
301.701
300.684
299.665
298.643
297.619
296.592
295.562
294.53
293.495
292.457
291.417
290.373
289.327
288.278
287.226
286.171
285.113
284.052
282.988
281.921
280.851
279.778
278.702
277.623
276.541
275.457
274.369
)
;

boundaryField
{
    left
    {
        type            fixedGradient;
        gradient        uniform 500;
    }
    right
    {
        type            uniformFixedValue;
        uniformValue    
        {
            type            sine;
            amplitude       
            {
                type            constant;
                value           20;
            }
            frequency       1.1574e-05;
            start           0;
            level           
            {
                type            constant;
                value           293;
            }
        }
        value           uniform 273.824;
    }
    frontAndBack
    {
        type            empty;
    }
    top_bottom
    {
        type            zeroGradient;
    }
}


// ************************************************************************* //
